 Entering Gaussian System, Link 0=g16
 Input=Pro_R_E_tsd2_m06l.com
 Output=Pro_R_E_tsd2_m06l.log
 Initial command:
 /apps/gaussian16/B.01/AVX2/g16/l1.exe "/tmp/51822072/Gau-26774.inp" -scrdir="/tmp/51822072/"
 Entering Link 1 = /apps/gaussian16/B.01/AVX2/g16/l1.exe PID=     26775.
  
 Copyright (c) 1988-2017, Gaussian, Inc.  All Rights Reserved.
  
 This is part of the Gaussian(R) 16 program.  It is based on
 the Gaussian(R) 09 system (copyright 2009, Gaussian, Inc.),
 the Gaussian(R) 03 system (copyright 2003, Gaussian, Inc.),
 the Gaussian(R) 98 system (copyright 1998, Gaussian, Inc.),
 the Gaussian(R) 94 system (copyright 1995, Gaussian, Inc.),
 the Gaussian 92(TM) system (copyright 1992, Gaussian, Inc.),
 the Gaussian 90(TM) system (copyright 1990, Gaussian, Inc.),
 the Gaussian 88(TM) system (copyright 1988, Gaussian, Inc.),
 the Gaussian 86(TM) system (copyright 1986, Carnegie Mellon
 University), and the Gaussian 82(TM) system (copyright 1983,
 Carnegie Mellon University). Gaussian is a federally registered
 trademark of Gaussian, Inc.
  
 This software contains proprietary and confidential information,
 including trade secrets, belonging to Gaussian, Inc.
  
 This software is provided under written license and may be
 used, copied, transmitted, or stored only in accord with that
 written license.
  
 The following legend is applicable only to US Government
 contracts under FAR:
  
                    RESTRICTED RIGHTS LEGEND
  
 Use, reproduction and disclosure by the US Government is
 subject to restrictions as set forth in subparagraphs (a)
 and (c) of the Commercial Computer Software - Restricted
 Rights clause in FAR 52.227-19.
  
 Gaussian, Inc.
 340 Quinnipiac St., Bldg. 40, Wallingford CT 06492
  
  
 ---------------------------------------------------------------
 Warning -- This program may not be used in any manner that
 competes with the business of Gaussian, Inc. or will provide
 assistance to any competitor of Gaussian, Inc.  The licensee
 of this program is prohibited from giving any competitor of
 Gaussian, Inc. access to this program.  By using this program,
 the user acknowledges that Gaussian, Inc. is engaged in the
 business of creating and licensing software in the field of
 computational chemistry and represents and warrants to the
 licensee that it is not a competitor of Gaussian, Inc. and that
 it will not use this program in any manner prohibited above.
 ---------------------------------------------------------------
  

 Cite this work as:
 Gaussian 16, Revision B.01,
 M. J. Frisch, G. W. Trucks, H. B. Schlegel, G. E. Scuseria, 
 M. A. Robb, J. R. Cheeseman, G. Scalmani, V. Barone, 
 G. A. Petersson, H. Nakatsuji, X. Li, M. Caricato, A. V. Marenich, 
 J. Bloino, B. G. Janesko, R. Gomperts, B. Mennucci, H. P. Hratchian, 
 J. V. Ortiz, A. F. Izmaylov, J. L. Sonnenberg, D. Williams-Young, 
 F. Ding, F. Lipparini, F. Egidi, J. Goings, B. Peng, A. Petrone, 
 T. Henderson, D. Ranasinghe, V. G. Zakrzewski, J. Gao, N. Rega, 
 G. Zheng, W. Liang, M. Hada, M. Ehara, K. Toyota, R. Fukuda, 
 J. Hasegawa, M. Ishida, T. Nakajima, Y. Honda, O. Kitao, H. Nakai, 
 T. Vreven, K. Throssell, J. A. Montgomery, Jr., J. E. Peralta, 
 F. Ogliaro, M. J. Bearpark, J. J. Heyd, E. N. Brothers, K. N. Kudin, 
 V. N. Staroverov, T. A. Keith, R. Kobayashi, J. Normand, 
 K. Raghavachari, A. P. Rendell, J. C. Burant, S. S. Iyengar, 
 J. Tomasi, M. Cossi, J. M. Millam, M. Klene, C. Adamo, R. Cammi, 
 J. W. Ochterski, R. L. Martin, K. Morokuma, O. Farkas, 
 J. B. Foresman, and D. J. Fox, Gaussian, Inc., Wallingford CT, 2016.
 
 ******************************************
 Gaussian 16:  ES64L-G16RevB.01 20-Dec-2017
                24-Aug-2022 
 ******************************************
 %nprocshared=12
 Will use up to   12 processors via shared memory.
 %mem=24GB
 --------------------------------------------------------------------
 #m06l/gen pseudo=read integral=ultrafine temperature=308 scrf=(read)
 --------------------------------------------------------------------
 1/38=1,40=2,112=308000,172=1/1;
 2/12=2,17=6,18=5,40=1/2;
 3/5=7,11=2,16=1,17=8,25=1,30=1,70=2203,74=-53,75=-5/1,2,3;
 4//1;
 5/5=2,38=5/2;
 6/7=2,8=2,9=2,10=2,28=1/1;
 99/5=1,9=1/99;
 -------------------
 Title Card Required
 -------------------
 Symbolic Z-matrix:
 Charge =  0 Multiplicity = 2
 C                     3.13177  -0.19464   3.01292 
 C                     2.27905   0.62373   3.75473 
 C                     0.91841   0.77401   3.35408 
 C                     0.52107   0.14615   2.11416 
 C                     2.62478  -0.86288   1.87552 
 H                     0.17445   1.94568   5.04836 
 H                     4.17351  -0.36547   3.32023 
 H                     2.63491   1.12572   4.66752 
 C                    -0.09105   1.45513   4.09941 
 C                    -1.70881   0.82273   2.41231 
 C                    -1.41307   1.43453   3.6512 
 H                    -2.22694   1.87786   4.24307 
 N                    -0.73608   0.28613   1.61228 
 N                     1.34885  -0.67588   1.42079 
 C                     3.30038  -1.92814   1.1533 
 C                    -3.02363   0.60874   1.83942 
 N                     2.70915  -2.54832   0.16262 
 N                    -3.15444  -0.03475   0.70194 
 Ni                   -1.24953  -0.0387   -0.22721 
 C                     0.06508   1.16487  -1.1247 
 C                     0.27559   2.43055  -0.63926 
 C                    -1.22254  -0.76886  -2.13927 
 H                    -1.96262  -1.55545  -2.34862 
 C                    -1.48685   0.6756   -2.25261 
 H                    -0.83858   1.18107  -2.99995 
 C                     0.15877  -1.06919  -1.92794 
 H                     0.56788  -2.02093  -2.31008 
 C                     0.99919   0.20737  -1.84825 
 H                     1.28703   0.58229  -2.8665 
 H                    -0.58668   2.90845  -0.13786 
 C                    -5.23796   0.68922   1.5606 
 H                    -5.58169   1.64046   1.10275 
 H                    -6.06385   0.25543   2.15571 
 C                     4.69232  -3.64972   0.84782 
 H                     4.5451   -4.47314   1.57715 
 H                     5.73613  -3.67528   0.48199 
 C                     3.61255  -3.63944  -0.27609 
 H                     3.02905  -4.58503  -0.26658 
 C                    -4.6041   -0.27727   0.52119 
 H                    -4.89314   0.01896  -0.50785 
 O                     4.5008   -2.39017   1.56086 
 O                    -4.14609   1.00504   2.47815 
 Ni                    0.70483  -1.94289   0.01238 
 Cl                   -0.37057  -3.94456  -0.20536 
 C                     4.19066  -3.46912  -1.72442 
 C                     5.02036  -2.1736   -1.84567 
 H                     4.40489  -1.27979  -1.61227 
 H                     5.90182  -2.16892  -1.17057 
 H                     5.40198  -2.05665  -2.88156 
 C                     5.07505  -4.6997   -2.03182 
 H                     4.49341  -5.64272  -1.95188 
 H                     5.47226  -4.63577  -3.06625 
 H                     5.94825  -4.77883  -1.35066 
 C                     3.03298  -3.43293  -2.7413 
 H                     2.41901  -2.52175  -2.61127 
 H                     3.43015  -3.4271   -3.77807 
 H                     2.36601  -4.3135   -2.63374 
 C                    -4.99178  -1.79023   0.70001 
 C                    -4.63359  -2.29724   2.1131 
 H                    -3.54195  -2.22744   2.29812 
 H                    -5.15988  -1.73337   2.91198 
 H                    -4.92042  -3.36419   2.22064 
 C                    -4.2438   -2.64037  -0.34801 
 H                    -4.47112  -2.29743  -1.37958 
 H                    -3.14531  -2.60793  -0.20223 
 H                    -4.56051  -3.70202  -0.27368 
 C                    -6.51247  -1.92581   0.45828 
 H                    -6.7957   -1.5583   -0.55126 
 H                    -6.81686  -2.99114   0.526 
 H                    -7.11429  -1.36602   1.20507 
 C                     1.48488   3.25755  -0.63959 
 C                     1.46862   4.48448   0.07924 
 C                     2.69827   2.93976  -1.32101 
 C                     2.57601   5.34421   0.13545 
 H                     0.54885   4.77197   0.61551 
 C                     3.80823   3.78617  -1.2738 
 H                     2.77346   2.01748  -1.91264 
 C                     3.76599   4.99855  -0.54381 
 H                     2.50136   6.27941   0.70864 
 H                     4.73646   3.53025  -1.8082 
 C                     4.9083    6.98745   0.14897 
 H                     4.14165   7.69337  -0.24251 
 H                     4.73591   6.83864   1.23868 
 H                     5.91202   7.42822   0.00067 
 O                     4.90278   5.75442  -0.56072 
 H                     1.94255   0.05244  -1.28505 
 C                    -2.85058   1.28466  -2.35768 
 C                    -3.97164   0.53131  -2.78302 
 C                    -3.01778   2.6817   -2.18174 
 C                    -5.21415   1.14963  -3.01438 
 H                    -3.86589  -0.54871  -2.96602 
 C                    -4.26242   3.29494  -2.39389 
 H                    -2.15202   3.29088  -1.87888 
 C                    -5.36983   2.53218  -2.81253 
 H                    -6.06562   0.54232  -3.36165 
 H                    -4.36631   4.38168  -2.24335 
 H                    -6.34327   3.01528  -2.99243 
 
 Stoichiometry    C41H46ClN4Ni2O3(2)
 Framework group  C1[X(C41H46ClN4Ni2O3)]
 Deg. of freedom   285
 Full point group                 C1      NOp   1
 Largest Abelian subgroup         C1      NOp   1
 Largest concise Abelian subgroup C1      NOp   1
                         Standard orientation:                         
 ---------------------------------------------------------------------
 Center     Atomic      Atomic             Coordinates (Angstroms)
 Number     Number       Type             X           Y           Z
 ---------------------------------------------------------------------
      1          6           0        3.131774   -0.194635    3.012918
      2          6           0        2.279053    0.623726    3.754733
      3          6           0        0.918410    0.774005    3.354084
      4          6           0        0.521067    0.146152    2.114162
      5          6           0        2.624784   -0.862884    1.875518
      6          1           0        0.174445    1.945677    5.048364
      7          1           0        4.173509   -0.365471    3.320231
      8          1           0        2.634914    1.125718    4.667517
      9          6           0       -0.091049    1.455126    4.099413
     10          6           0       -1.708809    0.822727    2.412305
     11          6           0       -1.413065    1.434532    3.651203
     12          1           0       -2.226938    1.877864    4.243070
     13          7           0       -0.736076    0.286132    1.612283
     14          7           0        1.348854   -0.675877    1.420790
     15          6           0        3.300376   -1.928142    1.153300
     16          6           0       -3.023630    0.608737    1.839424
     17          7           0        2.709147   -2.548322    0.162620
     18          7           0       -3.154442   -0.034750    0.701939
     19         28           0       -1.249530   -0.038702   -0.227207
     20          6           0        0.065082    1.164872   -1.124702
     21          6           0        0.275592    2.430547   -0.639255
     22          6           0       -1.222543   -0.768860   -2.139269
     23          1           0       -1.962616   -1.555446   -2.348623
     24          6           0       -1.486850    0.675596   -2.252614
     25          1           0       -0.838582    1.181071   -2.999949
     26          6           0        0.158774   -1.069192   -1.927935
     27          1           0        0.567883   -2.020928   -2.310076
     28          6           0        0.999191    0.207367   -1.848249
     29          1           0        1.287030    0.582288   -2.866501
     30          1           0       -0.586684    2.908453   -0.137863
     31          6           0       -5.237955    0.689224    1.560597
     32          1           0       -5.581692    1.640456    1.102749
     33          1           0       -6.063850    0.255425    2.155712
     34          6           0        4.692319   -3.649721    0.847820
     35          1           0        4.545097   -4.473140    1.577149
     36          1           0        5.736128   -3.675280    0.481991
     37          6           0        3.612546   -3.639437   -0.276090
     38          1           0        3.029050   -4.585030   -0.266580
     39          6           0       -4.604102   -0.277265    0.521187
     40          1           0       -4.893140    0.018964   -0.507851
     41          8           0        4.500798   -2.390167    1.560857
     42          8           0       -4.146090    1.005045    2.478151
     43         28           0        0.704825   -1.942889    0.012384
     44         17           0       -0.370568   -3.944556   -0.205356
     45          6           0        4.190664   -3.469123   -1.724415
     46          6           0        5.020356   -2.173600   -1.845665
     47          1           0        4.404890   -1.279794   -1.612265
     48          1           0        5.901816   -2.168922   -1.170568
     49          1           0        5.401976   -2.056651   -2.881556
     50          6           0        5.075049   -4.699704   -2.031820
     51          1           0        4.493408   -5.642716   -1.951880
     52          1           0        5.472257   -4.635766   -3.066254
     53          1           0        5.948245   -4.778827   -1.350657
     54          6           0        3.032977   -3.432931   -2.741302
     55          1           0        2.419013   -2.521752   -2.611267
     56          1           0        3.430152   -3.427095   -3.778068
     57          1           0        2.366005   -4.313499   -2.633743
     58          6           0       -4.991776   -1.790230    0.700013
     59          6           0       -4.633589   -2.297239    2.113096
     60          1           0       -3.541947   -2.227443    2.298121
     61          1           0       -5.159883   -1.733368    2.911976
     62          1           0       -4.920421   -3.364193    2.220640
     63          6           0       -4.243800   -2.640367   -0.348012
     64          1           0       -4.471120   -2.297426   -1.379580
     65          1           0       -3.145305   -2.607931   -0.202228
     66          1           0       -4.560505   -3.702019   -0.273678
     67          6           0       -6.512470   -1.925813    0.458280
     68          1           0       -6.795703   -1.558303   -0.551257
     69          1           0       -6.816862   -2.991140    0.526000
     70          1           0       -7.114287   -1.366017    1.205066
     71          6           0        1.484878    3.257554   -0.639594
     72          6           0        1.468621    4.484481    0.079241
     73          6           0        2.698267    2.939757   -1.321012
     74          6           0        2.576011    5.344214    0.135445
     75          1           0        0.548849    4.771973    0.615508
     76          6           0        3.808232    3.786168   -1.273800
     77          1           0        2.773461    2.017484   -1.912641
     78          6           0        3.765993    4.998549   -0.543805
     79          1           0        2.501358    6.279413    0.708644
     80          1           0        4.736463    3.530251   -1.808201
     81          6           0        4.908297    6.987453    0.148966
     82          1           0        4.141653    7.693365   -0.242512
     83          1           0        4.735908    6.838639    1.238677
     84          1           0        5.912022    7.428221    0.000665
     85          8           0        4.902781    5.754419   -0.560717
     86          1           0        1.942551    0.052438   -1.285045
     87          6           0       -2.850582    1.284656   -2.357681
     88          6           0       -3.971640    0.531309   -2.783024
     89          6           0       -3.017777    2.681702   -2.181744
     90          6           0       -5.214154    1.149626   -3.014384
     91          1           0       -3.865890   -0.548713   -2.966016
     92          6           0       -4.262417    3.294941   -2.393889
     93          1           0       -2.152019    3.290875   -1.878879
     94          6           0       -5.369826    2.532181   -2.812533
     95          1           0       -6.065623    0.542322   -3.361653
     96          1           0       -4.366306    4.381678   -2.243350
     97          1           0       -6.343273    3.015277   -2.992427
 ---------------------------------------------------------------------
 Rotational constants (GHZ):           0.0616565           0.0468380           0.0363293
 General basis read from cards:  (5D, 7F)
 ======================================================================================================
                                       Pseudopotential Parameters
 ======================================================================================================
  Center     Atomic      Valence      Angular      Power
  Number     Number     Electrons     Momentum     of R      Exponent        Coefficient   SO-Coeffient
 ======================================================================================================
    1          6
                                   No pseudopotential on this center.
    2          6
                                   No pseudopotential on this center.
    3          6
                                   No pseudopotential on this center.
    4          6
                                   No pseudopotential on this center.
    5          6
                                   No pseudopotential on this center.
    6          1
                                   No pseudopotential on this center.
    7          1
                                   No pseudopotential on this center.
    8          1
                                   No pseudopotential on this center.
    9          6
                                   No pseudopotential on this center.
   10          6
                                   No pseudopotential on this center.
   11          6
                                   No pseudopotential on this center.
   12          1
                                   No pseudopotential on this center.
   13          7
                                   No pseudopotential on this center.
   14          7
                                   No pseudopotential on this center.
   15          6
                                   No pseudopotential on this center.
   16          6
                                   No pseudopotential on this center.
   17          7
                                   No pseudopotential on this center.
   18          7
                                   No pseudopotential on this center.
   19         28           18
                                      D and up 
                                                     1      469.9324331      -10.00000000    0.00000000
                                                     2       85.4236411      -69.40848050    0.00000000
                                                     2       21.2674984      -12.09510200    0.00000000
                                      S - D
                                                     0      162.1686097        3.00000000    0.00000000
                                                     1      176.5333232       22.02536180    0.00000000
                                                     2       68.9562010      443.01810880    0.00000000
                                                     2       13.5792838      145.56964110    0.00000000
                                      P - D
                                                     0       69.0181506        5.00000000    0.00000000
                                                     1      275.5955596        4.98828240    0.00000000
                                                     2       47.1315453      256.69458530    0.00000000
                                                     2       12.9874075       78.47544500    0.00000000
   20          6
                                   No pseudopotential on this center.
   21          6
                                   No pseudopotential on this center.
   22          6
                                   No pseudopotential on this center.
   23          1
                                   No pseudopotential on this center.
   24          6
                                   No pseudopotential on this center.
   25          1
                                   No pseudopotential on this center.
   26          6
                                   No pseudopotential on this center.
   27          1
                                   No pseudopotential on this center.
   28          6
                                   No pseudopotential on this center.
   29          1
                                   No pseudopotential on this center.
   30          1
                                   No pseudopotential on this center.
   31          6
                                   No pseudopotential on this center.
   32          1
                                   No pseudopotential on this center.
   33          1
                                   No pseudopotential on this center.
   34          6
                                   No pseudopotential on this center.
   35          1
                                   No pseudopotential on this center.
   36          1
                                   No pseudopotential on this center.
   37          6
                                   No pseudopotential on this center.
   38          1
                                   No pseudopotential on this center.
   39          6
                                   No pseudopotential on this center.
   40          1
                                   No pseudopotential on this center.
   41          8
                                   No pseudopotential on this center.
   42          8
                                   No pseudopotential on this center.
   43         28           18
                                      D and up 
                                                     1      469.9324331      -10.00000000    0.00000000
                                                     2       85.4236411      -69.40848050    0.00000000
                                                     2       21.2674984      -12.09510200    0.00000000
                                      S - D
                                                     0      162.1686097        3.00000000    0.00000000
                                                     1      176.5333232       22.02536180    0.00000000
                                                     2       68.9562010      443.01810880    0.00000000
                                                     2       13.5792838      145.56964110    0.00000000
                                      P - D
                                                     0       69.0181506        5.00000000    0.00000000
                                                     1      275.5955596        4.98828240    0.00000000
                                                     2       47.1315453      256.69458530    0.00000000
                                                     2       12.9874075       78.47544500    0.00000000
   44         17
                                   No pseudopotential on this center.
   45          6
                                   No pseudopotential on this center.
   46          6
                                   No pseudopotential on this center.
   47          1
                                   No pseudopotential on this center.
   48          1
                                   No pseudopotential on this center.
   49          1
                                   No pseudopotential on this center.
   50          6
                                   No pseudopotential on this center.
   51          1
                                   No pseudopotential on this center.
   52          1
                                   No pseudopotential on this center.
   53          1
                                   No pseudopotential on this center.
   54          6
                                   No pseudopotential on this center.
   55          1
                                   No pseudopotential on this center.
   56          1
                                   No pseudopotential on this center.
   57          1
                                   No pseudopotential on this center.
   58          6
                                   No pseudopotential on this center.
   59          6
                                   No pseudopotential on this center.
   60          1
                                   No pseudopotential on this center.
   61          1
                                   No pseudopotential on this center.
   62          1
                                   No pseudopotential on this center.
   63          6
                                   No pseudopotential on this center.
   64          1
                                   No pseudopotential on this center.
   65          1
                                   No pseudopotential on this center.
   66          1
                                   No pseudopotential on this center.
   67          6
                                   No pseudopotential on this center.
   68          1
                                   No pseudopotential on this center.
   69          1
                                   No pseudopotential on this center.
   70          1
                                   No pseudopotential on this center.
   71          6
                                   No pseudopotential on this center.
   72          6
                                   No pseudopotential on this center.
   73          6
                                   No pseudopotential on this center.
   74          6
                                   No pseudopotential on this center.
   75          1
                                   No pseudopotential on this center.
   76          6
                                   No pseudopotential on this center.
   77          1
                                   No pseudopotential on this center.
   78          6
                                   No pseudopotential on this center.
   79          1
                                   No pseudopotential on this center.
   80          1
                                   No pseudopotential on this center.
   81          6
                                   No pseudopotential on this center.
   82          1
                                   No pseudopotential on this center.
   83          1
                                   No pseudopotential on this center.
   84          1
                                   No pseudopotential on this center.
   85          8
                                   No pseudopotential on this center.
   86          1
                                   No pseudopotential on this center.
   87          6
                                   No pseudopotential on this center.
   88          6
                                   No pseudopotential on this center.
   89          6
                                   No pseudopotential on this center.
   90          6
                                   No pseudopotential on this center.
   91          1
                                   No pseudopotential on this center.
   92          6
                                   No pseudopotential on this center.
   93          1
                                   No pseudopotential on this center.
   94          6
                                   No pseudopotential on this center.
   95          1
                                   No pseudopotential on this center.
   96          1
                                   No pseudopotential on this center.
   97          1
                                   No pseudopotential on this center.
 ======================================================================================================
 There are  2094 symmetry adapted cartesian basis functions of A   symmetry.
 There are  1845 symmetry adapted basis functions of A   symmetry.
  1845 basis functions,  2989 primitive gaussians,  2094 cartesian basis functions
   199 alpha electrons      198 beta electrons
       nuclear repulsion energy      8368.3958179256 Hartrees.
 NAtoms=   97 NActive=   97 NUniq=   97 SFac= 1.00D+00 NAtFMM=   60 NAOKFM=T Big=T
 Integral buffers will be    131072 words long.
 Raffenetti 2 integral format.
 Two-electron integral symmetry is turned on.
 Using the following non-standard input for PCM:
 Eps=4.5
 --- end of non-standard input.
 ------------------------------------------------------------------------------
 Polarizable Continuum Model (PCM)
 =================================
 Model                : PCM.
 Atomic radii         : UFF (Universal Force Field).
 Polarization charges : Total charges.
 Charge compensation  : None.
 Solution method      : On-the-fly selection.
 Cavity type          : Scaled VdW (van der Waals Surface) (Alpha=1.100).
 Cavity algorithm     : GePol (No added spheres)
                        Default sphere list used, NSphG=   97.
                        Lebedev-Laikov grids with approx.  5.0 points / Ang**2.
                        Smoothing algorithm: York/Karplus (Gamma=1.0000).
                        Polarization charges: spherical gaussians, with
                                              point-specific exponents (IZeta= 3).
                        Self-potential: point-specific (ISelfS= 7).
                        Self-field    : sphere-specific E.n sum rule (ISelfD= 2).
 Solvent              : Water, Eps=   4.500000 Eps(inf)=   1.777849
 ------------------------------------------------------------------------------
 One-electron integrals computed using PRISM.
   1 Symmetry operations used in ECPInt.
 ECPInt:  NShTT=  274911 NPrTT=  843013 LenC2=  201316 LenP2D=  402982.
 LDataN:  DoStor=T MaxTD1= 6 Len=  172
 NBasis=  1845 RedAO= T EigKep=  6.71D-06  NBF=  1845
 NBsUse=  1845 1.00D-06 EigRej= -1.00D+00 NBFU=  1845
 ExpMin= 2.40D-02 ExpMax= 6.95D+04 ExpMxC= 2.37D+03 IAcc=3 IRadAn=         5 AccDes= 0.00D+00
 Harris functional with IExCor= 1009 and IRadAn=       5 diagonalized for initial guess.
 HarFok:  IExCor= 1009 AccDes= 0.00D+00 IRadAn=         5 IDoV= 1 UseB2=F ITyADJ=14
 ICtDFT=  3500011 ScaDFX=  1.000000  1.000000  1.000000  1.000000
 FoFCou: FMM=F IPFlag=           0 FMFlag=      100000 FMFlg1=        2001
         NFxFlg=           0 DoJE=T BraDBF=F KetDBF=T FulRan=T
         wScrn=  0.000000 ICntrl=       500 IOpCl=  0 I1Cent=   200000004 NGrid=           0
         NMat0=    1 NMatS0=      1 NMatT0=    0 NMatD0=    1 NMtDS0=    0 NMtDT0=    0
 Petite list used in FoFCou.
 Initial guess <Sx>= 0.0000 <Sy>= 0.0000 <Sz>= 0.5000 <S**2>= 0.7500 S= 0.5000
 Requested convergence on RMS density matrix=1.00D-08 within 128 cycles.
 Requested convergence on MAX density matrix=1.00D-06.
 Requested convergence on             energy=1.00D-06.
 No special actions if energy rises.
 Inv3:  Mode=1 IEnd=   108396363.
 Iteration    1 A*A^-1 deviation from unit magnitude is 4.11D-15 for   2555.
 Iteration    1 A*A^-1 deviation from orthogonality  is 2.66D-15 for   5147   3779.
 Iteration    1 A^-1*A deviation from unit magnitude is 4.11D-15 for   2555.
 Iteration    1 A^-1*A deviation from orthogonality  is 4.33D-15 for   5493   5479.
 EnCoef did   100 forward-backward iterations
 EnCoef did   100 forward-backward iterations
 EnCoef did    11 forward-backward iterations
 EnCoef did     3 forward-backward iterations
 EnCoef did     5 forward-backward iterations
 EnCoef did     5 forward-backward iterations
 EnCoef did     2 forward-backward iterations
 EnCoef did    36 forward-backward iterations
 EnCoef did   100 forward-backward iterations
 EnCoef did   100 forward-backward iterations
 EnCoef did   100 forward-backward iterations
 EnCoef did     6 forward-backward iterations
 Restarting incremental Fock formation.
 Restarting incremental Fock formation.
 Error on total polarization charges =  0.01762
 SCF Done:  E(UM06L) =  -2834.18346682     A.U. after   42 cycles
            NFock= 42  Conv=0.25D-08     -V/T= 2.0516
 <Sx>= 0.0000 <Sy>= 0.0000 <Sz>= 0.5000 <S**2>= 1.1353 S= 0.6770
 <L.S>=  0.00000000000    
 Annihilation of the first spin contaminant:
 S**2 before annihilation     1.1353,   after     0.7725

 **********************************************************************

            Population analysis using the SCF Density.

 **********************************************************************

 Orbital symmetries:
 Alpha Orbitals:
       Occupied  (A) (A) (A) (A) (A) (A) (A) (A) (A) (A) (A) (A)
                 (A) (A) (A) (A) (A) (A) (A) (A) (A) (A) (A) (A)
                 (A) (A) (A) (A) (A) (A) (A) (A) (A) (A) (A) (A)
                 (A) (A) (A) (A) (A) (A) (A) (A) (A) (A) (A) (A)
                 (A) (A) (A) (A) (A) (A) (A) (A) (A) (A) (A) (A)
                 (A) (A) (A) (A) (A) (A) (A) (A) (A) (A) (A) (A)
                 (A) (A) (A) (A) (A) (A) (A) (A) (A) (A) (A) (A)
                 (A) (A) (A) (A) (A) (A) (A) (A) (A) (A) (A) (A)
                 (A) (A) (A) (A) (A) (A) (A) (A) (A) (A) (A) (A)
                 (A) (A) (A) (A) (A) (A) (A) (A) (A) (A) (A) (A)
                 (A) (A) (A) (A) (A) (A) (A) (A) (A) (A) (A) (A)
                 (A) (A) (A) (A) (A) (A) (A) (A) (A) (A) (A) (A)
                 (A) (A) (A) (A) (A) (A) (A) (A) (A) (A) (A) (A)
                 (A) (A) (A) (A) (A) (A) (A) (A) (A) (A) (A) (A)
                 (A) (A) (A) (A) (A) (A) (A) (A) (A) (A) (A) (A)
                 (A) (A) (A) (A) (A) (A) (A) (A) (A) (A) (A) (A)
                 (A) (A) (A) (A) (A) (A) (A)
       Virtual   (A) (A) (A) (A) (A) (A) (A) (A) (A) (A) (A) (A)
                 (A) (A) (A) (A) (A) (A) (A) (A) (A) (A) (A) (A)
                 (A) (A) (A) (A) (A) (A) (A) (A) (A) (A) (A) (A)
                 (A) (A) (A) (A) (A) (A) (A) (A) (A) (A) (A) (A)
                 (A) (A) (A) (A) (A) (A) (A) (A) (A) (A) (A) (A)
                 (A) (A) (A) (A) (A) (A) (A) (A) (A) (A) (A) (A)
                 (A) (A) (A) (A) (A) (A) (A) (A) (A) (A) (A) (A)
                 (A) (A) (A) (A) (A) (A) (A) (A) (A) (A) (A) (A)
                 (A) (A) (A) (A) (A) (A) (A) (A) (A) (A) (A) (A)
                 (A) (A) (A) (A) (A) (A) (A) (A) (A) (A) (A) (A)
                 (A) (A) (A) (A) (A) (A) (A) (A) (A) (A) (A) (A)
                 (A) (A) (A) (A) (A) (A) (A) (A) (A) (A) (A) (A)
                 (A) (A) (A) (A) (A) (A) (A) (A) (A) (A) (A) (A)
                 (A) (A) (A) (A) (A) (A) (A) (A) (A) (A) (A) (A)
                 (A) (A) (A) (A) (A) (A) (A) (A) (A) (A) (A) (A)
                 (A) (A) (A) (A) (A) (A) (A) (A) (A) (A) (A) (A)
                 (A) (A) (A) (A) (A) (A) (A) (A) (A) (A) (A) (A)
                 (A) (A) (A) (A) (A) (A) (A) (A) (A) (A) (A) (A)
                 (A) (A) (A) (A) (A) (A) (A) (A) (A) (A) (A) (A)
                 (A) (A) (A) (A) (A) (A) (A) (A) (A) (A) (A) (A)
                 (A) (A) (A) (A) (A) (A) (A) (A) (A) (A) (A) (A)
                 (A) (A) (A) (A) (A) (A) (A) (A) (A) (A) (A) (A)
                 (A) (A) (A) (A) (A) (A) (A) (A) (A) (A) (A) (A)
                 (A) (A) (A) (A) (A) (A) (A) (A) (A) (A) (A) (A)
                 (A) (A) (A) (A) (A) (A) (A) (A) (A) (A) (A) (A)
                 (A) (A) (A) (A) (A) (A) (A) (A) (A) (A) (A) (A)
                 (A) (A) (A) (A) (A) (A) (A) (A) (A) (A) (A) (A)
                 (A) (A) (A) (A) (A) (A) (A) (A) (A) (A) (A) (A)
                 (A) (A) (A) (A) (A) (A) (A) (A) (A) (A) (A) (A)
                 (A) (A) (A) (A) (A) (A) (A) (A) (A) (A) (A) (A)
                 (A) (A) (A) (A) (A) (A) (A) (A) (A) (A) (A) (A)
                 (A) (A) (A) (A) (A) (A) (A) (A) (A) (A) (A) (A)
                 (A) (A) (A) (A) (A) (A) (A) (A) (A) (A) (A) (A)
                 (A) (A) (A) (A) (A) (A) (A) (A) (A) (A) (A) (A)
                 (A) (A) (A) (A) (A) (A) (A) (A) (A) (A) (A) (A)
                 (A) (A) (A) (A) (A) (A) (A) (A) (A) (A) (A) (A)
                 (A) (A) (A) (A) (A) (A) (A) (A) (A) (A) (A) (A)
                 (A) (A) (A) (A) (A) (A) (A) (A) (A) (A) (A) (A)
                 (A) (A) (A) (A) (A) (A) (A) (A) (A) (A) (A) (A)
                 (A) (A) (A) (A) (A) (A) (A) (A) (A) (A) (A) (A)
                 (A) (A) (A) (A) (A) (A) (A) (A) (A) (A) (A) (A)
                 (A) (A) (A) (A) (A) (A) (A) (A) (A) (A) (A) (A)
                 (A) (A) (A) (A) (A) (A) (A) (A) (A) (A) (A) (A)
                 (A) (A) (A) (A) (A) (A) (A) (A) (A) (A) (A) (A)
                 (A) (A) (A) (A) (A) (A) (A) (A) (A) (A) (A) (A)
                 (A) (A) (A) (A) (A) (A) (A) (A) (A) (A) (A) (A)
                 (A) (A) (A) (A) (A) (A) (A) (A) (A) (A) (A) (A)
                 (A) (A) (A) (A) (A) (A) (A) (A) (A) (A) (A) (A)
                 (A) (A) (A) (A) (A) (A) (A) (A) (A) (A) (A) (A)
                 (A) (A) (A) (A) (A) (A) (A) (A) (A) (A) (A) (A)
                 (A) (A) (A) (A) (A) (A) (A) (A) (A) (A) (A) (A)
                 (A) (A) (A) (A) (A) (A) (A) (A) (A) (A) (A) (A)
                 (A) (A) (A) (A) (A) (A) (A) (A) (A) (A) (A) (A)
                 (A) (A) (A) (A) (A) (A) (A) (A) (A) (A) (A) (A)
                 (A) (A) (A) (A) (A) (A) (A) (A) (A) (A) (A) (A)
                 (A) (A) (A) (A) (A) (A) (A) (A) (A) (A) (A) (A)
                 (A) (A) (A) (A) (A) (A) (A) (A) (A) (A) (A) (A)
                 (A) (A) (A) (A) (A) (A) (A) (A) (A) (A) (A) (A)
                 (A) (A) (A) (A) (A) (A) (A) (A) (A) (A) (A) (A)
                 (A) (A) (A) (A) (A) (A) (A) (A) (A) (A) (A) (A)
                 (A) (A) (A) (A) (A) (A) (A) (A) (A) (A) (A) (A)
                 (A) (A) (A) (A) (A) (A) (A) (A) (A) (A) (A) (A)
                 (A) (A) (A) (A) (A) (A) (A) (A) (A) (A) (A) (A)
                 (A) (A) (A) (A) (A) (A) (A) (A) (A) (A) (A) (A)
                 (A) (A) (A) (A) (A) (A) (A) (A) (A) (A) (A) (A)
                 (A) (A) (A) (A) (A) (A) (A) (A) (A) (A) (A) (A)
                 (A) (A) (A) (A) (A) (A) (A) (A) (A) (A) (A) (A)
                 (A) (A) (A) (A) (A) (A) (A) (A) (A) (A) (A) (A)
                 (A) (A) (A) (A) (A) (A) (A) (A) (A) (A) (A) (A)
                 (A) (A) (A) (A) (A) (A) (A) (A) (A) (A) (A) (A)
                 (A) (A) (A) (A) (A) (A) (A) (A) (A) (A) (A) (A)
                 (A) (A) (A) (A) (A) (A) (A) (A) (A) (A) (A) (A)
                 (A) (A) (A) (A) (A) (A) (A) (A) (A) (A) (A) (A)
                 (A) (A) (A) (A) (A) (A) (A) (A) (A) (A) (A) (A)
                 (A) (A) (A) (A) (A) (A) (A) (A) (A) (A) (A) (A)
                 (A) (A) (A) (A) (A) (A) (A) (A) (A) (A) (A) (A)
                 (A) (A) (A) (A) (A) (A) (A) (A) (A) (A) (A) (A)
                 (A) (A) (A) (A) (A) (A) (A) (A) (A) (A) (A) (A)
                 (A) (A) (A) (A) (A) (A) (A) (A) (A) (A) (A) (A)
                 (A) (A) (A) (A) (A) (A) (A) (A) (A) (A) (A) (A)
                 (A) (A) (A) (A) (A) (A) (A) (A) (A) (A) (A) (A)
                 (A) (A) (A) (A) (A) (A) (A) (A) (A) (A) (A) (A)
                 (A) (A) (A) (A) (A) (A) (A) (A) (A) (A) (A) (A)
                 (A) (A) (A) (A) (A) (A) (A) (A) (A) (A) (A) (A)
                 (A) (A) (A) (A) (A) (A) (A) (A) (A) (A) (A) (A)
                 (A) (A) (A) (A) (A) (A) (A) (A) (A) (A) (A) (A)
                 (A) (A) (A) (A) (A) (A) (A) (A) (A) (A) (A) (A)
                 (A) (A) (A) (A) (A) (A) (A) (A) (A) (A) (A) (A)
                 (A) (A) (A) (A) (A) (A) (A) (A) (A) (A) (A) (A)
                 (A) (A) (A) (A) (A) (A) (A) (A) (A) (A) (A) (A)
                 (A) (A) (A) (A) (A) (A) (A) (A) (A) (A) (A) (A)
                 (A) (A) (A) (A) (A) (A) (A) (A) (A) (A) (A) (A)
                 (A) (A) (A) (A) (A) (A) (A) (A) (A) (A) (A) (A)
                 (A) (A) (A) (A) (A) (A) (A) (A) (A) (A) (A) (A)
                 (A) (A) (A) (A) (A) (A) (A) (A) (A) (A) (A) (A)
                 (A) (A) (A) (A) (A) (A) (A) (A) (A) (A) (A) (A)
                 (A) (A) (A) (A) (A) (A) (A) (A) (A) (A) (A) (A)
                 (A) (A) (A) (A) (A) (A) (A) (A) (A) (A) (A) (A)
                 (A) (A) (A) (A) (A) (A) (A) (A) (A) (A) (A) (A)
                 (A) (A) (A) (A) (A) (A) (A) (A) (A) (A) (A) (A)
                 (A) (A) (A) (A) (A) (A) (A) (A) (A) (A) (A) (A)
                 (A) (A) (A) (A) (A) (A) (A) (A) (A) (A) (A) (A)
                 (A) (A) (A) (A) (A) (A) (A) (A) (A) (A) (A) (A)
                 (A) (A) (A) (A) (A) (A) (A) (A) (A) (A) (A) (A)
                 (A) (A) (A) (A) (A) (A) (A) (A) (A) (A) (A) (A)
                 (A) (A) (A) (A) (A) (A) (A) (A) (A) (A) (A) (A)
                 (A) (A) (A) (A) (A) (A) (A) (A) (A) (A) (A) (A)
                 (A) (A) (A) (A) (A) (A) (A) (A) (A) (A) (A) (A)
                 (A) (A) (A) (A) (A) (A) (A) (A) (A) (A) (A) (A)
                 (A) (A) (A) (A) (A) (A) (A) (A) (A) (A) (A) (A)
                 (A) (A) (A) (A) (A) (A) (A) (A) (A) (A) (A) (A)
                 (A) (A) (A) (A) (A) (A) (A) (A) (A) (A) (A) (A)
                 (A) (A) (A) (A) (A) (A) (A) (A) (A) (A) (A) (A)
                 (A) (A) (A) (A) (A) (A) (A) (A) (A) (A) (A) (A)
                 (A) (A) (A) (A) (A) (A) (A) (A) (A) (A) (A) (A)
                 (A) (A) (A) (A) (A) (A) (A) (A) (A) (A) (A) (A)
                 (A) (A) (A) (A) (A) (A) (A) (A) (A) (A) (A) (A)
                 (A) (A) (A) (A) (A) (A) (A) (A) (A) (A) (A) (A)
                 (A) (A) (A) (A) (A) (A) (A) (A) (A) (A) (A) (A)
                 (A) (A) (A) (A) (A) (A) (A) (A) (A) (A) (A) (A)
                 (A) (A) (A) (A) (A) (A) (A) (A) (A) (A) (A) (A)
                 (A) (A) (A) (A) (A) (A) (A) (A) (A) (A) (A) (A)
                 (A) (A) (A) (A) (A) (A) (A) (A) (A) (A) (A) (A)
                 (A) (A) (A) (A) (A) (A) (A) (A) (A) (A) (A) (A)
                 (A) (A) (A) (A) (A) (A) (A) (A) (A) (A) (A) (A)
                 (A) (A) (A) (A) (A) (A) (A) (A) (A) (A) (A) (A)
                 (A) (A) (A) (A) (A) (A) (A) (A) (A) (A) (A) (A)
                 (A) (A) (A) (A) (A) (A) (A) (A) (A) (A) (A) (A)
                 (A) (A) (A) (A) (A) (A) (A) (A) (A) (A) (A) (A)
                 (A) (A) (A) (A) (A) (A) (A) (A) (A) (A) (A) (A)
                 (A) (A) (A) (A) (A) (A) (A) (A) (A) (A) (A) (A)
                 (A) (A) (A) (A) (A) (A) (A) (A) (A) (A) (A) (A)
                 (A) (A) (A) (A) (A) (A) (A) (A) (A) (A) (A) (A)
                 (A) (A) (A) (A) (A) (A) (A) (A) (A) (A) (A) (A)
                 (A) (A) (A) (A) (A) (A) (A) (A) (A) (A) (A) (A)
                 (A) (A) (A) (A) (A) (A) (A) (A) (A) (A) (A) (A)
                 (A) (A) (A) (A) (A) (A) (A) (A) (A) (A) (A) (A)
                 (A) (A)
 Beta  Orbitals:
       Occupied  (A) (A) (A) (A) (A) (A) (A) (A) (A) (A) (A) (A)
                 (A) (A) (A) (A) (A) (A) (A) (A) (A) (A) (A) (A)
                 (A) (A) (A) (A) (A) (A) (A) (A) (A) (A) (A) (A)
                 (A) (A) (A) (A) (A) (A) (A) (A) (A) (A) (A) (A)
                 (A) (A) (A) (A) (A) (A) (A) (A) (A) (A) (A) (A)
                 (A) (A) (A) (A) (A) (A) (A) (A) (A) (A) (A) (A)
                 (A) (A) (A) (A) (A) (A) (A) (A) (A) (A) (A) (A)
                 (A) (A) (A) (A) (A) (A) (A) (A) (A) (A) (A) (A)
                 (A) (A) (A) (A) (A) (A) (A) (A) (A) (A) (A) (A)
                 (A) (A) (A) (A) (A) (A) (A) (A) (A) (A) (A) (A)
                 (A) (A) (A) (A) (A) (A) (A) (A) (A) (A) (A) (A)
                 (A) (A) (A) (A) (A) (A) (A) (A) (A) (A) (A) (A)
                 (A) (A) (A) (A) (A) (A) (A) (A) (A) (A) (A) (A)
                 (A) (A) (A) (A) (A) (A) (A) (A) (A) (A) (A) (A)
                 (A) (A) (A) (A) (A) (A) (A) (A) (A) (A) (A) (A)
                 (A) (A) (A) (A) (A) (A) (A) (A) (A) (A) (A) (A)
                 (A) (A) (A) (A) (A) (A)
       Virtual   (A) (A) (A) (A) (A) (A) (A) (A) (A) (A) (A) (A)
                 (A) (A) (A) (A) (A) (A) (A) (A) (A) (A) (A) (A)
                 (A) (A) (A) (A) (A) (A) (A) (A) (A) (A) (A) (A)
                 (A) (A) (A) (A) (A) (A) (A) (A) (A) (A) (A) (A)
                 (A) (A) (A) (A) (A) (A) (A) (A) (A) (A) (A) (A)
                 (A) (A) (A) (A) (A) (A) (A) (A) (A) (A) (A) (A)
                 (A) (A) (A) (A) (A) (A) (A) (A) (A) (A) (A) (A)
                 (A) (A) (A) (A) (A) (A) (A) (A) (A) (A) (A) (A)
                 (A) (A) (A) (A) (A) (A) (A) (A) (A) (A) (A) (A)
                 (A) (A) (A) (A) (A) (A) (A) (A) (A) (A) (A) (A)
                 (A) (A) (A) (A) (A) (A) (A) (A) (A) (A) (A) (A)
                 (A) (A) (A) (A) (A) (A) (A) (A) (A) (A) (A) (A)
                 (A) (A) (A) (A) (A) (A) (A) (A) (A) (A) (A) (A)
                 (A) (A) (A) (A) (A) (A) (A) (A) (A) (A) (A) (A)
                 (A) (A) (A) (A) (A) (A) (A) (A) (A) (A) (A) (A)
                 (A) (A) (A) (A) (A) (A) (A) (A) (A) (A) (A) (A)
                 (A) (A) (A) (A) (A) (A) (A) (A) (A) (A) (A) (A)
                 (A) (A) (A) (A) (A) (A) (A) (A) (A) (A) (A) (A)
                 (A) (A) (A) (A) (A) (A) (A) (A) (A) (A) (A) (A)
                 (A) (A) (A) (A) (A) (A) (A) (A) (A) (A) (A) (A)
                 (A) (A) (A) (A) (A) (A) (A) (A) (A) (A) (A) (A)
                 (A) (A) (A) (A) (A) (A) (A) (A) (A) (A) (A) (A)
                 (A) (A) (A) (A) (A) (A) (A) (A) (A) (A) (A) (A)
                 (A) (A) (A) (A) (A) (A) (A) (A) (A) (A) (A) (A)
                 (A) (A) (A) (A) (A) (A) (A) (A) (A) (A) (A) (A)
                 (A) (A) (A) (A) (A) (A) (A) (A) (A) (A) (A) (A)
                 (A) (A) (A) (A) (A) (A) (A) (A) (A) (A) (A) (A)
                 (A) (A) (A) (A) (A) (A) (A) (A) (A) (A) (A) (A)
                 (A) (A) (A) (A) (A) (A) (A) (A) (A) (A) (A) (A)
                 (A) (A) (A) (A) (A) (A) (A) (A) (A) (A) (A) (A)
                 (A) (A) (A) (A) (A) (A) (A) (A) (A) (A) (A) (A)
                 (A) (A) (A) (A) (A) (A) (A) (A) (A) (A) (A) (A)
                 (A) (A) (A) (A) (A) (A) (A) (A) (A) (A) (A) (A)
                 (A) (A) (A) (A) (A) (A) (A) (A) (A) (A) (A) (A)
                 (A) (A) (A) (A) (A) (A) (A) (A) (A) (A) (A) (A)
                 (A) (A) (A) (A) (A) (A) (A) (A) (A) (A) (A) (A)
                 (A) (A) (A) (A) (A) (A) (A) (A) (A) (A) (A) (A)
                 (A) (A) (A) (A) (A) (A) (A) (A) (A) (A) (A) (A)
                 (A) (A) (A) (A) (A) (A) (A) (A) (A) (A) (A) (A)
                 (A) (A) (A) (A) (A) (A) (A) (A) (A) (A) (A) (A)
                 (A) (A) (A) (A) (A) (A) (A) (A) (A) (A) (A) (A)
                 (A) (A) (A) (A) (A) (A) (A) (A) (A) (A) (A) (A)
                 (A) (A) (A) (A) (A) (A) (A) (A) (A) (A) (A) (A)
                 (A) (A) (A) (A) (A) (A) (A) (A) (A) (A) (A) (A)
                 (A) (A) (A) (A) (A) (A) (A) (A) (A) (A) (A) (A)
                 (A) (A) (A) (A) (A) (A) (A) (A) (A) (A) (A) (A)
                 (A) (A) (A) (A) (A) (A) (A) (A) (A) (A) (A) (A)
                 (A) (A) (A) (A) (A) (A) (A) (A) (A) (A) (A) (A)
                 (A) (A) (A) (A) (A) (A) (A) (A) (A) (A) (A) (A)
                 (A) (A) (A) (A) (A) (A) (A) (A) (A) (A) (A) (A)
                 (A) (A) (A) (A) (A) (A) (A) (A) (A) (A) (A) (A)
                 (A) (A) (A) (A) (A) (A) (A) (A) (A) (A) (A) (A)
                 (A) (A) (A) (A) (A) (A) (A) (A) (A) (A) (A) (A)
                 (A) (A) (A) (A) (A) (A) (A) (A) (A) (A) (A) (A)
                 (A) (A) (A) (A) (A) (A) (A) (A) (A) (A) (A) (A)
                 (A) (A) (A) (A) (A) (A) (A) (A) (A) (A) (A) (A)
                 (A) (A) (A) (A) (A) (A) (A) (A) (A) (A) (A) (A)
                 (A) (A) (A) (A) (A) (A) (A) (A) (A) (A) (A) (A)
                 (A) (A) (A) (A) (A) (A) (A) (A) (A) (A) (A) (A)
                 (A) (A) (A) (A) (A) (A) (A) (A) (A) (A) (A) (A)
                 (A) (A) (A) (A) (A) (A) (A) (A) (A) (A) (A) (A)
                 (A) (A) (A) (A) (A) (A) (A) (A) (A) (A) (A) (A)
                 (A) (A) (A) (A) (A) (A) (A) (A) (A) (A) (A) (A)
                 (A) (A) (A) (A) (A) (A) (A) (A) (A) (A) (A) (A)
                 (A) (A) (A) (A) (A) (A) (A) (A) (A) (A) (A) (A)
                 (A) (A) (A) (A) (A) (A) (A) (A) (A) (A) (A) (A)
                 (A) (A) (A) (A) (A) (A) (A) (A) (A) (A) (A) (A)
                 (A) (A) (A) (A) (A) (A) (A) (A) (A) (A) (A) (A)
                 (A) (A) (A) (A) (A) (A) (A) (A) (A) (A) (A) (A)
                 (A) (A) (A) (A) (A) (A) (A) (A) (A) (A) (A) (A)
                 (A) (A) (A) (A) (A) (A) (A) (A) (A) (A) (A) (A)
                 (A) (A) (A) (A) (A) (A) (A) (A) (A) (A) (A) (A)
                 (A) (A) (A) (A) (A) (A) (A) (A) (A) (A) (A) (A)
                 (A) (A) (A) (A) (A) (A) (A) (A) (A) (A) (A) (A)
                 (A) (A) (A) (A) (A) (A) (A) (A) (A) (A) (A) (A)
                 (A) (A) (A) (A) (A) (A) (A) (A) (A) (A) (A) (A)
                 (A) (A) (A) (A) (A) (A) (A) (A) (A) (A) (A) (A)
                 (A) (A) (A) (A) (A) (A) (A) (A) (A) (A) (A) (A)
                 (A) (A) (A) (A) (A) (A) (A) (A) (A) (A) (A) (A)
                 (A) (A) (A) (A) (A) (A) (A) (A) (A) (A) (A) (A)
                 (A) (A) (A) (A) (A) (A) (A) (A) (A) (A) (A) (A)
                 (A) (A) (A) (A) (A) (A) (A) (A) (A) (A) (A) (A)
                 (A) (A) (A) (A) (A) (A) (A) (A) (A) (A) (A) (A)
                 (A) (A) (A) (A) (A) (A) (A) (A) (A) (A) (A) (A)
                 (A) (A) (A) (A) (A) (A) (A) (A) (A) (A) (A) (A)
                 (A) (A) (A) (A) (A) (A) (A) (A) (A) (A) (A) (A)
                 (A) (A) (A) (A) (A) (A) (A) (A) (A) (A) (A) (A)
                 (A) (A) (A) (A) (A) (A) (A) (A) (A) (A) (A) (A)
                 (A) (A) (A) (A) (A) (A) (A) (A) (A) (A) (A) (A)
                 (A) (A) (A) (A) (A) (A) (A) (A) (A) (A) (A) (A)
                 (A) (A) (A) (A) (A) (A) (A) (A) (A) (A) (A) (A)
                 (A) (A) (A) (A) (A) (A) (A) (A) (A) (A) (A) (A)
                 (A) (A) (A) (A) (A) (A) (A) (A) (A) (A) (A) (A)
                 (A) (A) (A) (A) (A) (A) (A) (A) (A) (A) (A) (A)
                 (A) (A) (A) (A) (A) (A) (A) (A) (A) (A) (A) (A)
                 (A) (A) (A) (A) (A) (A) (A) (A) (A) (A) (A) (A)
                 (A) (A) (A) (A) (A) (A) (A) (A) (A) (A) (A) (A)
                 (A) (A) (A) (A) (A) (A) (A) (A) (A) (A) (A) (A)
                 (A) (A) (A) (A) (A) (A) (A) (A) (A) (A) (A) (A)
                 (A) (A) (A) (A) (A) (A) (A) (A) (A) (A) (A) (A)
                 (A) (A) (A) (A) (A) (A) (A) (A) (A) (A) (A) (A)
                 (A) (A) (A) (A) (A) (A) (A) (A) (A) (A) (A) (A)
                 (A) (A) (A) (A) (A) (A) (A) (A) (A) (A) (A) (A)
                 (A) (A) (A) (A) (A) (A) (A) (A) (A) (A) (A) (A)
                 (A) (A) (A) (A) (A) (A) (A) (A) (A) (A) (A) (A)
                 (A) (A) (A) (A) (A) (A) (A) (A) (A) (A) (A) (A)
                 (A) (A) (A) (A) (A) (A) (A) (A) (A) (A) (A) (A)
                 (A) (A) (A) (A) (A) (A) (A) (A) (A) (A) (A) (A)
                 (A) (A) (A) (A) (A) (A) (A) (A) (A) (A) (A) (A)
                 (A) (A) (A) (A) (A) (A) (A) (A) (A) (A) (A) (A)
                 (A) (A) (A) (A) (A) (A) (A) (A) (A) (A) (A) (A)
                 (A) (A) (A) (A) (A) (A) (A) (A) (A) (A) (A) (A)
                 (A) (A) (A) (A) (A) (A) (A) (A) (A) (A) (A) (A)
                 (A) (A) (A) (A) (A) (A) (A) (A) (A) (A) (A) (A)
                 (A) (A) (A) (A) (A) (A) (A) (A) (A) (A) (A) (A)
                 (A) (A) (A) (A) (A) (A) (A) (A) (A) (A) (A) (A)
                 (A) (A) (A) (A) (A) (A) (A) (A) (A) (A) (A) (A)
                 (A) (A) (A) (A) (A) (A) (A) (A) (A) (A) (A) (A)
                 (A) (A) (A) (A) (A) (A) (A) (A) (A) (A) (A) (A)
                 (A) (A) (A) (A) (A) (A) (A) (A) (A) (A) (A) (A)
                 (A) (A) (A) (A) (A) (A) (A) (A) (A) (A) (A) (A)
                 (A) (A) (A) (A) (A) (A) (A) (A) (A) (A) (A) (A)
                 (A) (A) (A) (A) (A) (A) (A) (A) (A) (A) (A) (A)
                 (A) (A) (A) (A) (A) (A) (A) (A) (A) (A) (A) (A)
                 (A) (A) (A) (A) (A) (A) (A) (A) (A) (A) (A) (A)
                 (A) (A) (A) (A) (A) (A) (A) (A) (A) (A) (A) (A)
                 (A) (A) (A) (A) (A) (A) (A) (A) (A) (A) (A) (A)
                 (A) (A) (A) (A) (A) (A) (A) (A) (A) (A) (A) (A)
                 (A) (A) (A) (A) (A) (A) (A) (A) (A) (A) (A) (A)
                 (A) (A) (A) (A) (A) (A) (A) (A) (A) (A) (A) (A)
                 (A) (A) (A) (A) (A) (A) (A) (A) (A) (A) (A) (A)
                 (A) (A) (A) (A) (A) (A) (A) (A) (A) (A) (A) (A)
                 (A) (A) (A) (A) (A) (A) (A) (A) (A) (A) (A) (A)
                 (A) (A) (A) (A) (A) (A) (A) (A) (A) (A) (A) (A)
                 (A) (A) (A) (A) (A) (A) (A) (A) (A) (A) (A) (A)
                 (A) (A) (A) (A) (A) (A) (A) (A) (A) (A) (A) (A)
                 (A) (A) (A) (A) (A) (A) (A) (A) (A) (A) (A) (A)
                 (A) (A) (A)
 The electronic state is 2-A.
 Alpha  occ. eigenvalues -- -101.08385 -19.02225 -19.01882 -19.00340 -14.20178
 Alpha  occ. eigenvalues --  -14.20046 -14.18565 -14.18122 -10.15580 -10.15053
 Alpha  occ. eigenvalues --  -10.13704 -10.12072 -10.11828 -10.11338 -10.10929
 Alpha  occ. eigenvalues --  -10.10752 -10.10686 -10.09895 -10.09368 -10.09350
 Alpha  occ. eigenvalues --  -10.09070 -10.07910 -10.07845 -10.07588 -10.07579
 Alpha  occ. eigenvalues --  -10.07462 -10.07441 -10.07414 -10.07171 -10.06613
 Alpha  occ. eigenvalues --  -10.06351 -10.06237 -10.06134 -10.06083 -10.06028
 Alpha  occ. eigenvalues --  -10.05978 -10.05843 -10.05780 -10.05539 -10.05526
 Alpha  occ. eigenvalues --  -10.05440 -10.05272 -10.04697 -10.04575 -10.04512
 Alpha  occ. eigenvalues --  -10.04282 -10.04109 -10.04034 -10.03459  -9.31361
 Alpha  occ. eigenvalues --   -7.01752  -7.01517  -7.01474  -4.02871  -3.97883
 Alpha  occ. eigenvalues --   -2.62968  -2.61801  -2.59154  -2.57801  -2.56862
 Alpha  occ. eigenvalues --   -2.54914  -1.07339  -1.06926  -1.03956  -0.95198
 Alpha  occ. eigenvalues --   -0.90424  -0.88237  -0.87146  -0.82556  -0.81346
 Alpha  occ. eigenvalues --   -0.80200  -0.79850  -0.79156  -0.78373  -0.75825
 Alpha  occ. eigenvalues --   -0.75098  -0.74376  -0.73110  -0.72616  -0.71140
 Alpha  occ. eigenvalues --   -0.71021  -0.70429  -0.69384  -0.68987  -0.67081
 Alpha  occ. eigenvalues --   -0.65459  -0.65214  -0.65022  -0.64810  -0.64511
 Alpha  occ. eigenvalues --   -0.64135  -0.63348  -0.61555  -0.61031  -0.60697
 Alpha  occ. eigenvalues --   -0.58758  -0.57307  -0.56986  -0.56603  -0.56130
 Alpha  occ. eigenvalues --   -0.55508  -0.54790  -0.52240  -0.51206  -0.50823
 Alpha  occ. eigenvalues --   -0.50319  -0.49884  -0.49255  -0.48985  -0.48905
 Alpha  occ. eigenvalues --   -0.47495  -0.46712  -0.46463  -0.46133  -0.45955
 Alpha  occ. eigenvalues --   -0.45409  -0.44248  -0.43608  -0.42906  -0.42868
 Alpha  occ. eigenvalues --   -0.42657  -0.42459  -0.41990  -0.41879  -0.41432
 Alpha  occ. eigenvalues --   -0.41133  -0.41019  -0.40900  -0.40580  -0.40423
 Alpha  occ. eigenvalues --   -0.40150  -0.40049  -0.39463  -0.39415  -0.38810
 Alpha  occ. eigenvalues --   -0.38431  -0.38342  -0.38255  -0.37589  -0.37455
 Alpha  occ. eigenvalues --   -0.36977  -0.36953  -0.36785  -0.35769  -0.35394
 Alpha  occ. eigenvalues --   -0.35347  -0.35109  -0.34878  -0.34736  -0.34596
 Alpha  occ. eigenvalues --   -0.34413  -0.34291  -0.34111  -0.33695  -0.33493
 Alpha  occ. eigenvalues --   -0.33315  -0.33134  -0.32931  -0.32635  -0.32546
 Alpha  occ. eigenvalues --   -0.32069  -0.31958  -0.31541  -0.31443  -0.31264
 Alpha  occ. eigenvalues --   -0.31175  -0.30847  -0.30693  -0.30378  -0.29990
 Alpha  occ. eigenvalues --   -0.29840  -0.29508  -0.29429  -0.29149  -0.28947
 Alpha  occ. eigenvalues --   -0.28826  -0.27673  -0.27168  -0.25851  -0.25389
 Alpha  occ. eigenvalues --   -0.25088  -0.24684  -0.24101  -0.23828  -0.23592
 Alpha  occ. eigenvalues --   -0.23434  -0.23261  -0.22717  -0.22130  -0.21375
 Alpha  occ. eigenvalues --   -0.20838  -0.20199  -0.20000  -0.19075  -0.18818
 Alpha  occ. eigenvalues --   -0.17656  -0.16916  -0.15666  -0.15173
 Alpha virt. eigenvalues --   -0.11917  -0.09048  -0.06918  -0.05806  -0.04440
 Alpha virt. eigenvalues --   -0.03916  -0.03809  -0.03588  -0.03218   0.00404
 Alpha virt. eigenvalues --    0.00722   0.01279   0.01897   0.01980   0.02248
 Alpha virt. eigenvalues --    0.03093   0.03477   0.03556   0.04691   0.04836
 Alpha virt. eigenvalues --    0.05249   0.05377   0.05859   0.05990   0.06060
 Alpha virt. eigenvalues --    0.06165   0.06528   0.06754   0.07063   0.07291
 Alpha virt. eigenvalues --    0.07371   0.07640   0.07868   0.08013   0.08467
 Alpha virt. eigenvalues --    0.08696   0.08784   0.09248   0.09391   0.09603
 Alpha virt. eigenvalues --    0.09733   0.09970   0.10140   0.10296   0.10507
 Alpha virt. eigenvalues --    0.10734   0.10852   0.11284   0.11351   0.11467
 Alpha virt. eigenvalues --    0.11563   0.11882   0.12026   0.12178   0.12393
 Alpha virt. eigenvalues --    0.12547   0.12871   0.12957   0.13120   0.13296
 Alpha virt. eigenvalues --    0.13505   0.13581   0.13769   0.14038   0.14402
 Alpha virt. eigenvalues --    0.14542   0.14757   0.14844   0.14942   0.15201
 Alpha virt. eigenvalues --    0.15305   0.15452   0.15652   0.15908   0.15947
 Alpha virt. eigenvalues --    0.16365   0.16503   0.16646   0.17023   0.17224
 Alpha virt. eigenvalues --    0.17307   0.17493   0.17839   0.18252   0.18385
 Alpha virt. eigenvalues --    0.18648   0.18804   0.19156   0.19346   0.19421
 Alpha virt. eigenvalues --    0.19794   0.20015   0.20212   0.20442   0.20635
 Alpha virt. eigenvalues --    0.20823   0.20944   0.21262   0.21489   0.21766
 Alpha virt. eigenvalues --    0.21915   0.22114   0.22476   0.22572   0.22836
 Alpha virt. eigenvalues --    0.22900   0.22979   0.23050   0.23326   0.23448
 Alpha virt. eigenvalues --    0.23646   0.23706   0.23947   0.24581   0.24773
 Alpha virt. eigenvalues --    0.24809   0.24944   0.25297   0.25402   0.25730
 Alpha virt. eigenvalues --    0.25780   0.26063   0.26256   0.26414   0.26586
 Alpha virt. eigenvalues --    0.26892   0.27009   0.27110   0.27197   0.27358
 Alpha virt. eigenvalues --    0.27606   0.27837   0.28300   0.28329   0.28533
 Alpha virt. eigenvalues --    0.28598   0.29023   0.29061   0.29422   0.29543
 Alpha virt. eigenvalues --    0.29732   0.29805   0.29973   0.30143   0.30204
 Alpha virt. eigenvalues --    0.30424   0.30634   0.30845   0.31186   0.31439
 Alpha virt. eigenvalues --    0.31670   0.31983   0.32139   0.32342   0.32405
 Alpha virt. eigenvalues --    0.33002   0.33044   0.33255   0.33401   0.33603
 Alpha virt. eigenvalues --    0.33759   0.33926   0.33999   0.34089   0.34223
 Alpha virt. eigenvalues --    0.34338   0.34763   0.34935   0.35030   0.35254
 Alpha virt. eigenvalues --    0.35465   0.35723   0.35805   0.36107   0.36250
 Alpha virt. eigenvalues --    0.36457   0.36625   0.36757   0.36895   0.36976
 Alpha virt. eigenvalues --    0.37299   0.37338   0.37519   0.37729   0.37912
 Alpha virt. eigenvalues --    0.38108   0.38276   0.38519   0.38640   0.38731
 Alpha virt. eigenvalues --    0.38974   0.39132   0.39288   0.39400   0.39550
 Alpha virt. eigenvalues --    0.39804   0.39933   0.40085   0.40236   0.40381
 Alpha virt. eigenvalues --    0.40590   0.40866   0.41172   0.41196   0.41277
 Alpha virt. eigenvalues --    0.41546   0.41732   0.41830   0.42006   0.42132
 Alpha virt. eigenvalues --    0.42278   0.42393   0.42702   0.42787   0.42839
 Alpha virt. eigenvalues --    0.43097   0.43193   0.43419   0.43503   0.43557
 Alpha virt. eigenvalues --    0.43774   0.43996   0.44250   0.44286   0.44359
 Alpha virt. eigenvalues --    0.44486   0.44740   0.44837   0.45066   0.45182
 Alpha virt. eigenvalues --    0.45290   0.45480   0.45709   0.45742   0.45782
 Alpha virt. eigenvalues --    0.46126   0.46197   0.46388   0.46728   0.46911
 Alpha virt. eigenvalues --    0.47036   0.47269   0.47337   0.47668   0.47885
 Alpha virt. eigenvalues --    0.47912   0.48108   0.48439   0.48522   0.48749
 Alpha virt. eigenvalues --    0.48852   0.49116   0.49309   0.49560   0.49700
 Alpha virt. eigenvalues --    0.49867   0.50066   0.50530   0.50734   0.50978
 Alpha virt. eigenvalues --    0.51057   0.51351   0.51608   0.51808   0.52179
 Alpha virt. eigenvalues --    0.52233   0.52564   0.52918   0.52986   0.53253
 Alpha virt. eigenvalues --    0.53774   0.53930   0.54409   0.54568   0.54888
 Alpha virt. eigenvalues --    0.55042   0.55378   0.55486   0.55793   0.56419
 Alpha virt. eigenvalues --    0.56664   0.57019   0.57168   0.57639   0.57774
 Alpha virt. eigenvalues --    0.58045   0.58262   0.58636   0.58932   0.59179
 Alpha virt. eigenvalues --    0.59670   0.60041   0.60074   0.60518   0.60526
 Alpha virt. eigenvalues --    0.60940   0.61231   0.61494   0.61814   0.61991
 Alpha virt. eigenvalues --    0.62165   0.62375   0.62509   0.62959   0.63177
 Alpha virt. eigenvalues --    0.63591   0.63873   0.64129   0.64602   0.64843
 Alpha virt. eigenvalues --    0.65000   0.65030   0.65207   0.65632   0.65750
 Alpha virt. eigenvalues --    0.65934   0.66347   0.66624   0.66924   0.67141
 Alpha virt. eigenvalues --    0.67240   0.67560   0.67771   0.68029   0.68088
 Alpha virt. eigenvalues --    0.68421   0.68580   0.68718   0.69123   0.69348
 Alpha virt. eigenvalues --    0.69685   0.69976   0.70164   0.70337   0.70554
 Alpha virt. eigenvalues --    0.70804   0.71100   0.71273   0.71494   0.71696
 Alpha virt. eigenvalues --    0.72081   0.72281   0.72743   0.72905   0.73077
 Alpha virt. eigenvalues --    0.73162   0.73320   0.73743   0.73982   0.74556
 Alpha virt. eigenvalues --    0.75003   0.75210   0.75304   0.75522   0.76181
 Alpha virt. eigenvalues --    0.76344   0.76688   0.76945   0.77611   0.77686
 Alpha virt. eigenvalues --    0.77896   0.78003   0.78320   0.78662   0.78766
 Alpha virt. eigenvalues --    0.79224   0.79593   0.79711   0.79958   0.80202
 Alpha virt. eigenvalues --    0.80592   0.80621   0.80919   0.81382   0.81491
 Alpha virt. eigenvalues --    0.81923   0.81970   0.82326   0.82497   0.83047
 Alpha virt. eigenvalues --    0.83547   0.83702   0.83869   0.84001   0.84225
 Alpha virt. eigenvalues --    0.84698   0.85085   0.85309   0.85585   0.85798
 Alpha virt. eigenvalues --    0.86163   0.86364   0.86820   0.86929   0.87289
 Alpha virt. eigenvalues --    0.87322   0.87860   0.88244   0.88400   0.88721
 Alpha virt. eigenvalues --    0.89186   0.89190   0.89437   0.89641   0.90028
 Alpha virt. eigenvalues --    0.90407   0.90855   0.91161   0.91485   0.91733
 Alpha virt. eigenvalues --    0.92214   0.92458   0.92964   0.93128   0.93397
 Alpha virt. eigenvalues --    0.93813   0.94032   0.94998   0.95152   0.95520
 Alpha virt. eigenvalues --    0.95888   0.96326   0.96610   0.97042   0.97349
 Alpha virt. eigenvalues --    0.97497   0.97720   0.98359   0.98507   0.98686
 Alpha virt. eigenvalues --    0.99332   0.99517   0.99784   1.00198   1.00590
 Alpha virt. eigenvalues --    1.01096   1.01411   1.01946   1.02206   1.02712
 Alpha virt. eigenvalues --    1.03007   1.03729   1.03912   1.04100   1.04373
 Alpha virt. eigenvalues --    1.04798   1.05004   1.05479   1.05632   1.06241
 Alpha virt. eigenvalues --    1.06747   1.07033   1.07195   1.07363   1.07769
 Alpha virt. eigenvalues --    1.07904   1.08219   1.08376   1.09050   1.09258
 Alpha virt. eigenvalues --    1.09821   1.10163   1.10401   1.10600   1.10897
 Alpha virt. eigenvalues --    1.11527   1.11539   1.11984   1.12063   1.12198
 Alpha virt. eigenvalues --    1.12544   1.13094   1.13556   1.13923   1.14097
 Alpha virt. eigenvalues --    1.14448   1.14951   1.15050   1.15315   1.15850
 Alpha virt. eigenvalues --    1.16118   1.16469   1.16713   1.17390   1.17602
 Alpha virt. eigenvalues --    1.17912   1.18101   1.18379   1.18684   1.19026
 Alpha virt. eigenvalues --    1.19247   1.19705   1.19809   1.20245   1.20661
 Alpha virt. eigenvalues --    1.20753   1.20838   1.21330   1.21870   1.22430
 Alpha virt. eigenvalues --    1.22462   1.22788   1.23128   1.23341   1.23535
 Alpha virt. eigenvalues --    1.24083   1.24353   1.24664   1.25106   1.25240
 Alpha virt. eigenvalues --    1.25746   1.25868   1.26215   1.26369   1.26425
 Alpha virt. eigenvalues --    1.26831   1.26991   1.27420   1.27622   1.28091
 Alpha virt. eigenvalues --    1.28346   1.28993   1.29284   1.29655   1.30077
 Alpha virt. eigenvalues --    1.30233   1.30498   1.30648   1.31245   1.31956
 Alpha virt. eigenvalues --    1.32087   1.32730   1.33088   1.33458   1.33904
 Alpha virt. eigenvalues --    1.34244   1.34926   1.35086   1.35214   1.36244
 Alpha virt. eigenvalues --    1.36364   1.36742   1.37265   1.37431   1.37946
 Alpha virt. eigenvalues --    1.38206   1.38537   1.38665   1.39155   1.39682
 Alpha virt. eigenvalues --    1.39786   1.40536   1.40680   1.41376   1.41706
 Alpha virt. eigenvalues --    1.41974   1.42141   1.42966   1.43431   1.44100
 Alpha virt. eigenvalues --    1.44209   1.44291   1.44684   1.44824   1.45279
 Alpha virt. eigenvalues --    1.45905   1.46433   1.46618   1.46980   1.47140
 Alpha virt. eigenvalues --    1.47318   1.47698   1.48255   1.48462   1.48876
 Alpha virt. eigenvalues --    1.48994   1.49318   1.49521   1.49953   1.50076
 Alpha virt. eigenvalues --    1.50838   1.51203   1.51587   1.51781   1.52226
 Alpha virt. eigenvalues --    1.52515   1.52756   1.53024   1.53340   1.53716
 Alpha virt. eigenvalues --    1.54030   1.54455   1.54718   1.54904   1.55221
 Alpha virt. eigenvalues --    1.55583   1.55843   1.56147   1.56419   1.56797
 Alpha virt. eigenvalues --    1.56906   1.57359   1.57487   1.57868   1.58055
 Alpha virt. eigenvalues --    1.58314   1.58758   1.58834   1.59049   1.59281
 Alpha virt. eigenvalues --    1.59663   1.59924   1.60153   1.60386   1.60677
 Alpha virt. eigenvalues --    1.60746   1.61035   1.61300   1.61642   1.61874
 Alpha virt. eigenvalues --    1.62310   1.62373   1.62739   1.62870   1.63210
 Alpha virt. eigenvalues --    1.63335   1.63611   1.64281   1.64555   1.64802
 Alpha virt. eigenvalues --    1.65174   1.65289   1.65723   1.65857   1.66119
 Alpha virt. eigenvalues --    1.66783   1.67077   1.67108   1.67389   1.67802
 Alpha virt. eigenvalues --    1.68135   1.68532   1.68882   1.69017   1.69182
 Alpha virt. eigenvalues --    1.69494   1.69706   1.70018   1.70214   1.70719
 Alpha virt. eigenvalues --    1.71002   1.71531   1.72468   1.72777   1.72880
 Alpha virt. eigenvalues --    1.73253   1.73286   1.73676   1.74194   1.74678
 Alpha virt. eigenvalues --    1.75005   1.75137   1.75290   1.76023   1.76205
 Alpha virt. eigenvalues --    1.77008   1.77440   1.77620   1.78028   1.78230
 Alpha virt. eigenvalues --    1.78465   1.78869   1.79315   1.79578   1.80402
 Alpha virt. eigenvalues --    1.80635   1.81303   1.81651   1.81860   1.82556
 Alpha virt. eigenvalues --    1.83197   1.83872   1.84517   1.84775   1.85386
 Alpha virt. eigenvalues --    1.85753   1.86116   1.86220   1.86862   1.87183
 Alpha virt. eigenvalues --    1.87421   1.87814   1.88015   1.88365   1.88456
 Alpha virt. eigenvalues --    1.88893   1.89148   1.89607   1.89661   1.89954
 Alpha virt. eigenvalues --    1.90264   1.90339   1.91209   1.91335   1.91664
 Alpha virt. eigenvalues --    1.92040   1.92329   1.92563   1.92934   1.93265
 Alpha virt. eigenvalues --    1.93750   1.94052   1.94529   1.94808   1.95164
 Alpha virt. eigenvalues --    1.95357   1.95850   1.96256   1.96492   1.96606
 Alpha virt. eigenvalues --    1.97234   1.97331   1.97528   1.98076   1.98415
 Alpha virt. eigenvalues --    1.98549   1.99310   1.99484   1.99921   2.00570
 Alpha virt. eigenvalues --    2.00636   2.00960   2.01383   2.02466   2.02737
 Alpha virt. eigenvalues --    2.02905   2.03118   2.03565   2.03789   2.04313
 Alpha virt. eigenvalues --    2.04683   2.05173   2.05497   2.05825   2.06320
 Alpha virt. eigenvalues --    2.06616   2.06886   2.07179   2.07314   2.07744
 Alpha virt. eigenvalues --    2.08267   2.08775   2.08895   2.09175   2.09517
 Alpha virt. eigenvalues --    2.09921   2.10320   2.10935   2.11064   2.11410
 Alpha virt. eigenvalues --    2.11888   2.12203   2.12621   2.12707   2.13114
 Alpha virt. eigenvalues --    2.13249   2.13709   2.14408   2.14567   2.14868
 Alpha virt. eigenvalues --    2.15271   2.15659   2.15814   2.16205   2.17152
 Alpha virt. eigenvalues --    2.17279   2.17689   2.18155   2.18651   2.18986
 Alpha virt. eigenvalues --    2.19178   2.19380   2.19494   2.19723   2.20072
 Alpha virt. eigenvalues --    2.20395   2.20953   2.21172   2.21400   2.21748
 Alpha virt. eigenvalues --    2.21962   2.22148   2.22713   2.22912   2.23165
 Alpha virt. eigenvalues --    2.23283   2.23864   2.24039   2.24505   2.24686
 Alpha virt. eigenvalues --    2.25121   2.25525   2.26014   2.26607   2.26766
 Alpha virt. eigenvalues --    2.27054   2.27494   2.27922   2.28136   2.28290
 Alpha virt. eigenvalues --    2.28775   2.29263   2.29551   2.29615   2.30184
 Alpha virt. eigenvalues --    2.30735   2.31183   2.31831   2.32268   2.32340
 Alpha virt. eigenvalues --    2.32556   2.32676   2.33146   2.33558   2.33703
 Alpha virt. eigenvalues --    2.33948   2.34617   2.34856   2.35437   2.35583
 Alpha virt. eigenvalues --    2.35983   2.36460   2.36649   2.37283   2.37577
 Alpha virt. eigenvalues --    2.38160   2.38397   2.38827   2.39298   2.39650
 Alpha virt. eigenvalues --    2.39971   2.40769   2.40896   2.41156   2.41500
 Alpha virt. eigenvalues --    2.41905   2.42401   2.42479   2.42808   2.43034
 Alpha virt. eigenvalues --    2.43580   2.44092   2.44508   2.44719   2.45077
 Alpha virt. eigenvalues --    2.45425   2.45835   2.46175   2.46533   2.47209
 Alpha virt. eigenvalues --    2.47422   2.48063   2.48523   2.48792   2.49368
 Alpha virt. eigenvalues --    2.49711   2.50064   2.50600   2.51201   2.51734
 Alpha virt. eigenvalues --    2.51851   2.52100   2.53054   2.53381   2.53737
 Alpha virt. eigenvalues --    2.54058   2.54187   2.54368   2.54717   2.55109
 Alpha virt. eigenvalues --    2.55687   2.55985   2.56083   2.56295   2.56565
 Alpha virt. eigenvalues --    2.56692   2.57210   2.57748   2.57951   2.58192
 Alpha virt. eigenvalues --    2.58616   2.59132   2.59393   2.59782   2.59904
 Alpha virt. eigenvalues --    2.60246   2.60492   2.60663   2.60868   2.61011
 Alpha virt. eigenvalues --    2.61243   2.61554   2.62077   2.62239   2.62809
 Alpha virt. eigenvalues --    2.62975   2.63336   2.63554   2.63631   2.63864
 Alpha virt. eigenvalues --    2.64089   2.64256   2.64754   2.65117   2.65292
 Alpha virt. eigenvalues --    2.65505   2.65847   2.66392   2.66781   2.66851
 Alpha virt. eigenvalues --    2.66900   2.67405   2.67856   2.67979   2.68057
 Alpha virt. eigenvalues --    2.68843   2.69294   2.69550   2.69776   2.69872
 Alpha virt. eigenvalues --    2.70201   2.70529   2.70644   2.70733   2.71048
 Alpha virt. eigenvalues --    2.71149   2.71322   2.71606   2.72203   2.72487
 Alpha virt. eigenvalues --    2.72953   2.73317   2.73754   2.74020   2.74389
 Alpha virt. eigenvalues --    2.74637   2.74877   2.75392   2.75626   2.75831
 Alpha virt. eigenvalues --    2.75963   2.76414   2.76838   2.77508   2.77601
 Alpha virt. eigenvalues --    2.77796   2.78412   2.78811   2.78906   2.79395
 Alpha virt. eigenvalues --    2.79648   2.79972   2.80710   2.80714   2.81162
 Alpha virt. eigenvalues --    2.81404   2.81759   2.82092   2.82163   2.83170
 Alpha virt. eigenvalues --    2.83545   2.83910   2.84095   2.84325   2.84484
 Alpha virt. eigenvalues --    2.84786   2.84863   2.85252   2.85267   2.85811
 Alpha virt. eigenvalues --    2.86212   2.86382   2.86853   2.87114   2.87217
 Alpha virt. eigenvalues --    2.87551   2.88094   2.88474   2.88596   2.89166
 Alpha virt. eigenvalues --    2.89477   2.89602   2.89886   2.90244   2.90261
 Alpha virt. eigenvalues --    2.90378   2.90738   2.90957   2.91311   2.92000
 Alpha virt. eigenvalues --    2.92063   2.92290   2.92405   2.92656   2.92983
 Alpha virt. eigenvalues --    2.93146   2.93518   2.93629   2.93865   2.94367
 Alpha virt. eigenvalues --    2.94679   2.94970   2.95553   2.96096   2.96302
 Alpha virt. eigenvalues --    2.96471   2.97133   2.97539   2.97807   2.98309
 Alpha virt. eigenvalues --    2.98663   2.99052   2.99312   3.00579   3.00731
 Alpha virt. eigenvalues --    3.00840   3.01395   3.01738   3.02031   3.02753
 Alpha virt. eigenvalues --    3.03000   3.03374   3.03632   3.03968   3.04349
 Alpha virt. eigenvalues --    3.04805   3.05067   3.05287   3.05463   3.06295
 Alpha virt. eigenvalues --    3.06976   3.07371   3.07522   3.07752   3.08132
 Alpha virt. eigenvalues --    3.08497   3.08588   3.09086   3.09406   3.09797
 Alpha virt. eigenvalues --    3.10492   3.10826   3.10868   3.11301   3.11363
 Alpha virt. eigenvalues --    3.11876   3.11980   3.12388   3.12900   3.12976
 Alpha virt. eigenvalues --    3.13142   3.14007   3.14247   3.14767   3.15427
 Alpha virt. eigenvalues --    3.15615   3.15769   3.16189   3.16407   3.16701
 Alpha virt. eigenvalues --    3.16952   3.17293   3.17676   3.18093   3.18202
 Alpha virt. eigenvalues --    3.18433   3.18466   3.18880   3.19486   3.19668
 Alpha virt. eigenvalues --    3.19938   3.20175   3.20512   3.20896   3.21003
 Alpha virt. eigenvalues --    3.21364   3.21645   3.22088   3.22162   3.22224
 Alpha virt. eigenvalues --    3.22749   3.22850   3.23375   3.23650   3.23811
 Alpha virt. eigenvalues --    3.23995   3.24380   3.24907   3.25112   3.25321
 Alpha virt. eigenvalues --    3.25618   3.25844   3.26159   3.26208   3.26483
 Alpha virt. eigenvalues --    3.26626   3.27099   3.27340   3.27587   3.27943
 Alpha virt. eigenvalues --    3.28088   3.28635   3.28977   3.29320   3.29701
 Alpha virt. eigenvalues --    3.29849   3.30205   3.30657   3.30987   3.31050
 Alpha virt. eigenvalues --    3.31323   3.31507   3.32059   3.32140   3.32437
 Alpha virt. eigenvalues --    3.32704   3.32990   3.33017   3.33295   3.33572
 Alpha virt. eigenvalues --    3.33840   3.34294   3.34444   3.34634   3.34923
 Alpha virt. eigenvalues --    3.35140   3.35417   3.35579   3.35870   3.36418
 Alpha virt. eigenvalues --    3.36659   3.37335   3.37353   3.37732   3.37975
 Alpha virt. eigenvalues --    3.38107   3.38452   3.38812   3.38874   3.39116
 Alpha virt. eigenvalues --    3.39254   3.39475   3.39676   3.39983   3.40000
 Alpha virt. eigenvalues --    3.40430   3.40725   3.40850   3.41379   3.41506
 Alpha virt. eigenvalues --    3.41716   3.41791   3.42284   3.42650   3.42685
 Alpha virt. eigenvalues --    3.43056   3.43401   3.43449   3.43801   3.43864
 Alpha virt. eigenvalues --    3.44197   3.44505   3.44743   3.44918   3.45320
 Alpha virt. eigenvalues --    3.45708   3.45916   3.46326   3.46624   3.46808
 Alpha virt. eigenvalues --    3.47232   3.47354   3.47907   3.48051   3.48173
 Alpha virt. eigenvalues --    3.48758   3.48845   3.48963   3.49354   3.50104
 Alpha virt. eigenvalues --    3.50509   3.50549   3.50793   3.51293   3.51596
 Alpha virt. eigenvalues --    3.51801   3.52005   3.52235   3.52568   3.53152
 Alpha virt. eigenvalues --    3.53381   3.53654   3.53828   3.54140   3.54655
 Alpha virt. eigenvalues --    3.54816   3.54999   3.55111   3.55506   3.55590
 Alpha virt. eigenvalues --    3.55913   3.56422   3.56511   3.56796   3.57172
 Alpha virt. eigenvalues --    3.57477   3.57846   3.58102   3.58540   3.58837
 Alpha virt. eigenvalues --    3.59232   3.59510   3.59998   3.60213   3.60439
 Alpha virt. eigenvalues --    3.61368   3.61842   3.62014   3.62438   3.62871
 Alpha virt. eigenvalues --    3.63648   3.64051   3.64383   3.65082   3.65361
 Alpha virt. eigenvalues --    3.65837   3.66184   3.66562   3.66898   3.67510
 Alpha virt. eigenvalues --    3.67905   3.68196   3.68864   3.69173   3.69352
 Alpha virt. eigenvalues --    3.69718   3.69893   3.70253   3.70727   3.71091
 Alpha virt. eigenvalues --    3.71809   3.72023   3.72298   3.72873   3.73587
 Alpha virt. eigenvalues --    3.73826   3.74017   3.74727   3.75308   3.75907
 Alpha virt. eigenvalues --    3.76103   3.76625   3.77185   3.77700   3.78315
 Alpha virt. eigenvalues --    3.78723   3.79100   3.79631   3.80090   3.80380
 Alpha virt. eigenvalues --    3.80835   3.81432   3.81859   3.81928   3.82495
 Alpha virt. eigenvalues --    3.82687   3.83309   3.83432   3.83611   3.84279
 Alpha virt. eigenvalues --    3.84765   3.85578   3.85670   3.85802   3.86301
 Alpha virt. eigenvalues --    3.86671   3.87391   3.88484   3.88510   3.89203
 Alpha virt. eigenvalues --    3.89701   3.90088   3.90510   3.91311   3.91868
 Alpha virt. eigenvalues --    3.91968   3.92796   3.93344   3.94055   3.94729
 Alpha virt. eigenvalues --    3.94927   3.95639   3.96220   3.96740   3.97660
 Alpha virt. eigenvalues --    3.98246   3.98963   3.99230   4.00786   4.01119
 Alpha virt. eigenvalues --    4.01315   4.01904   4.02336   4.02570   4.02768
 Alpha virt. eigenvalues --    4.03316   4.03634   4.03834   4.04362   4.04959
 Alpha virt. eigenvalues --    4.05818   4.05979   4.06458   4.06703   4.07312
 Alpha virt. eigenvalues --    4.08070   4.08877   4.09562   4.10243   4.10703
 Alpha virt. eigenvalues --    4.11887   4.12417   4.12897   4.13679   4.13737
 Alpha virt. eigenvalues --    4.14129   4.14215   4.14572   4.14917   4.15185
 Alpha virt. eigenvalues --    4.15725   4.15994   4.16101   4.16428   4.16688
 Alpha virt. eigenvalues --    4.17015   4.17236   4.17794   4.18671   4.18676
 Alpha virt. eigenvalues --    4.19481   4.19891   4.20462   4.20940   4.21469
 Alpha virt. eigenvalues --    4.22033   4.22400   4.22597   4.22700   4.23168
 Alpha virt. eigenvalues --    4.23894   4.24078   4.24345   4.24616   4.24757
 Alpha virt. eigenvalues --    4.25097   4.25571   4.25929   4.26008   4.26520
 Alpha virt. eigenvalues --    4.27499   4.27706   4.28154   4.28419   4.28735
 Alpha virt. eigenvalues --    4.29199   4.30054   4.30400   4.31610   4.31762
 Alpha virt. eigenvalues --    4.32316   4.32661   4.32986   4.33278   4.33790
 Alpha virt. eigenvalues --    4.34064   4.34595   4.34895   4.35209   4.35674
 Alpha virt. eigenvalues --    4.36284   4.36757   4.37154   4.37935   4.38210
 Alpha virt. eigenvalues --    4.38792   4.39323   4.39570   4.40480   4.41113
 Alpha virt. eigenvalues --    4.41970   4.42440   4.43213   4.43432   4.43969
 Alpha virt. eigenvalues --    4.44588   4.44816   4.45375   4.45743   4.45920
 Alpha virt. eigenvalues --    4.46265   4.47169   4.47640   4.48379   4.49218
 Alpha virt. eigenvalues --    4.49869   4.50086   4.50602   4.51236   4.52245
 Alpha virt. eigenvalues --    4.52305   4.52686   4.53285   4.54416   4.54738
 Alpha virt. eigenvalues --    4.55546   4.56386   4.57538   4.57932   4.58385
 Alpha virt. eigenvalues --    4.59049   4.60804   4.61006   4.62174   4.63113
 Alpha virt. eigenvalues --    4.63785   4.64857   4.66163   4.67064   4.68178
 Alpha virt. eigenvalues --    4.68946   4.69997   4.70530   4.71634   4.73327
 Alpha virt. eigenvalues --    4.73846   4.75059   4.75355   4.76332   4.76836
 Alpha virt. eigenvalues --    4.77177   4.78492   4.79119   4.79761   4.79929
 Alpha virt. eigenvalues --    4.80361   4.81772   4.82307   4.83127   4.84365
 Alpha virt. eigenvalues --    4.86237   4.87167   4.87673   4.88869   4.89798
 Alpha virt. eigenvalues --    4.90335   4.91682   4.93692   4.94147   4.94370
 Alpha virt. eigenvalues --    4.95539   4.96634   4.97253   4.98508   4.98931
 Alpha virt. eigenvalues --    5.01068   5.02484   5.03550   5.03852   5.04734
 Alpha virt. eigenvalues --    5.05315   5.07045   5.07236   5.08731   5.09084
[...]
 
              Baa    -0.0020    -1.088    -0.388    -0.363  0.0568  0.7851  0.6167
    35 H(1)   Bbb    -0.0010    -0.549    -0.196    -0.183 -0.6310 -0.4504  0.6316
              Bcc     0.0031     1.638     0.584     0.546  0.7737 -0.4251  0.4698
 
              Baa    -0.0015    -0.811    -0.289    -0.270  0.0857  0.8716  0.4826
    36 H(1)   Bbb    -0.0009    -0.488    -0.174    -0.163 -0.2231 -0.4553  0.8619
              Bcc     0.0024     1.298     0.463     0.433  0.9710 -0.1815  0.1555
 
              Baa    -0.0081    -1.087    -0.388    -0.363 -0.0921 -0.2903  0.9525
    37 C(13)  Bbb    -0.0069    -0.926    -0.331    -0.309  0.6617  0.6970  0.2763
              Bcc     0.0150     2.013     0.718     0.672  0.7441 -0.6557 -0.1279
 
              Baa    -0.0046    -2.470    -0.881    -0.824  0.0744  0.0024  0.9972
    38 H(1)   Bbb    -0.0035    -1.851    -0.661    -0.617  0.7468  0.6626 -0.0573
              Bcc     0.0081     4.321     1.542     1.441 -0.6609  0.7490  0.0475
 
              Baa    -0.0018    -0.246    -0.088    -0.082  0.4610  0.7948  0.3947
    39 C(13)  Bbb    -0.0011    -0.150    -0.054    -0.050 -0.0278 -0.4316  0.9016
              Bcc     0.0030     0.397     0.142     0.132  0.8870 -0.4266 -0.1768
 
              Baa    -0.0016    -0.861    -0.307    -0.287  0.2745  0.4318  0.8592
    40 H(1)   Bbb    -0.0005    -0.281    -0.100    -0.094  0.1991  0.8486 -0.4901
              Bcc     0.0021     1.142     0.408     0.381  0.9408 -0.3056 -0.1469
 
              Baa    -0.0507     3.668     1.309     1.224  0.6422  0.5038 -0.5778
    41 O(17)  Bbb     0.0101    -0.734    -0.262    -0.245 -0.3967  0.8634  0.3118
              Bcc     0.0406    -2.935    -1.047    -0.979  0.6559  0.0290  0.7543
 
              Baa    -0.0256     1.856     0.662     0.619  0.0310  0.9100 -0.4134
    42 O(17)  Bbb     0.0103    -0.744    -0.265    -0.248  0.8401  0.2003  0.5040
              Bcc     0.0154    -1.112    -0.397    -0.371 -0.5415  0.3630  0.7583
 
              Baa    -1.9731    94.239    33.627    31.435 -0.1934 -0.5120  0.8369
    43 Ni(61) Bbb     0.5976   -28.541   -10.184    -9.520 -0.5892  0.7427  0.3182
              Bcc     1.3755   -65.698   -23.443   -21.914  0.7845  0.4316  0.4453
 
              Baa    -0.1878    -9.827    -3.507    -3.278  0.2922  0.2677  0.9181
    44 Cl(35) Bbb    -0.0919    -4.809    -1.716    -1.604  0.7464 -0.6640 -0.0439
              Bcc     0.2797    14.637     5.223     4.882  0.5979  0.6982 -0.3938
 
              Baa    -0.0037    -0.499    -0.178    -0.166  0.1439 -0.1836  0.9724
    45 C(13)  Bbb    -0.0012    -0.167    -0.060    -0.056  0.4297  0.8968  0.1058
              Bcc     0.0050     0.666     0.238     0.222  0.8914 -0.4026 -0.2079
 
              Baa    -0.0019    -0.257    -0.092    -0.086  0.2397  0.6812  0.6918
    46 C(13)  Bbb    -0.0015    -0.197    -0.070    -0.066 -0.2394  0.7320 -0.6378
              Bcc     0.0034     0.454     0.162     0.151  0.9409  0.0127 -0.3386
 
              Baa    -0.0029    -1.568    -0.559    -0.523  0.2352  0.4083  0.8820
    47 H(1)   Bbb    -0.0022    -1.166    -0.416    -0.389 -0.3200  0.8894 -0.3264
              Bcc     0.0051     2.734     0.976     0.912  0.9178  0.2055 -0.3399
 
              Baa    -0.0013    -0.705    -0.252    -0.235  0.1101  0.4928  0.8632
    48 H(1)   Bbb    -0.0009    -0.493    -0.176    -0.164 -0.0881  0.8699 -0.4854
              Bcc     0.0022     1.198     0.427     0.400  0.9900  0.0226 -0.1392
 
              Baa    -0.0011    -0.576    -0.205    -0.192  0.3927  0.5495  0.7374
    49 H(1)   Bbb    -0.0009    -0.502    -0.179    -0.167 -0.2673  0.8355 -0.4802
              Bcc     0.0020     1.078     0.385     0.359  0.8800  0.0085 -0.4750
 
              Baa    -0.0011    -0.150    -0.053    -0.050  0.5075  0.7687  0.3894
    50 C(13)  Bbb    -0.0008    -0.112    -0.040    -0.037  0.0899 -0.4967  0.8633
              Bcc     0.0019     0.262     0.093     0.087  0.8570 -0.4031 -0.3212
 
              Baa    -0.0010    -0.526    -0.188    -0.176  0.5282  0.7689 -0.3603
    51 H(1)   Bbb    -0.0009    -0.506    -0.181    -0.169  0.4760  0.0832  0.8755
              Bcc     0.0019     1.033     0.368     0.344  0.7031 -0.6339 -0.3220
 
              Baa    -0.0007    -0.365    -0.130    -0.122  0.4761 -0.0483  0.8780
    52 H(1)   Bbb    -0.0007    -0.363    -0.130    -0.121  0.3743  0.9147 -0.1527
              Bcc     0.0014     0.728     0.260     0.243  0.7957 -0.4013 -0.4536
 
              Baa    -0.0008    -0.416    -0.149    -0.139  0.4124  0.4844  0.7715
    53 H(1)   Bbb    -0.0007    -0.379    -0.135    -0.127  0.2213  0.7683 -0.6007
              Bcc     0.0015     0.796     0.284     0.265  0.8837 -0.4184 -0.2097
 
              Baa    -0.0031    -0.413    -0.147    -0.138 -0.3880  0.6924 -0.6083
    54 C(13)  Bbb    -0.0027    -0.359    -0.128    -0.120  0.7041  0.6486  0.2892
              Bcc     0.0058     0.772     0.275     0.257 -0.5947  0.3161  0.7391
 
              Baa    -0.0053    -2.847    -1.016    -0.950 -0.5120  0.7295 -0.4535
    55 H(1)   Bbb    -0.0052    -2.779    -0.992    -0.927  0.6713  0.6692  0.3186
              Bcc     0.0105     5.626     2.007     1.876 -0.5360  0.1413  0.8323
 
              Baa    -0.0015    -0.796    -0.284    -0.266  0.8008  0.0524  0.5966
    56 H(1)   Bbb    -0.0014    -0.754    -0.269    -0.251  0.1272  0.9586 -0.2549
              Bcc     0.0029     1.550     0.553     0.517 -0.5853  0.2800  0.7610
 
              Baa    -0.0030    -1.591    -0.568    -0.531  0.3508 -0.5822  0.7335
    57 H(1)   Bbb    -0.0029    -1.533    -0.547    -0.511  0.8210  0.5680  0.0581
              Bcc     0.0059     3.124     1.115     1.042 -0.4504  0.5818  0.6772
 
              Baa    -0.0036    -0.478    -0.171    -0.160  0.2524  0.9658  0.0596
    58 C(13)  Bbb     0.0002     0.026     0.009     0.009  0.1881 -0.1094  0.9760
              Bcc     0.0034     0.452     0.161     0.151  0.9492 -0.2351 -0.2093
 
              Baa    -0.0014    -0.185    -0.066    -0.062  0.3423  0.7962  0.4989
    59 C(13)  Bbb    -0.0008    -0.106    -0.038    -0.035  0.3703 -0.6023  0.7072
              Bcc     0.0022     0.290     0.104     0.097  0.8636 -0.0574 -0.5010
 
              Baa    -0.0023    -1.253    -0.447    -0.418  0.2325  0.9136  0.3337
    60 H(1)   Bbb    -0.0015    -0.784    -0.280    -0.261  0.5057 -0.4066  0.7609
              Bcc     0.0038     2.037     0.727     0.679  0.8308 -0.0081 -0.5565
 
              Baa    -0.0009    -0.470    -0.168    -0.157  0.4192  0.8507  0.3172
    61 H(1)   Bbb    -0.0004    -0.238    -0.085    -0.079  0.3894 -0.4841  0.7836
              Bcc     0.0013     0.708     0.253     0.236  0.8202 -0.2050 -0.5342
 
              Baa    -0.0009    -0.495    -0.177    -0.165  0.0849  0.8883  0.4513
    62 H(1)   Bbb    -0.0007    -0.382    -0.136    -0.127  0.4556 -0.4375  0.7753
              Bcc     0.0016     0.877     0.313     0.293  0.8861  0.1398 -0.4418
 
              Baa    -0.0020    -0.271    -0.097    -0.091 -0.1158  0.5553  0.8236
    63 C(13)  Bbb    -0.0014    -0.182    -0.065    -0.061 -0.1220  0.8149 -0.5666
              Bcc     0.0034     0.453     0.162     0.151  0.9858  0.1661  0.0266
 
              Baa    -0.0016    -0.847    -0.302    -0.282 -0.2482  0.4384  0.8638
    64 H(1)   Bbb    -0.0011    -0.583    -0.208    -0.194  0.0216  0.8940 -0.4475
              Bcc     0.0027     1.430     0.510     0.477  0.9685  0.0924  0.2314
 
              Baa    -0.0040    -2.130    -0.760    -0.710 -0.1033  0.3461  0.9325
    65 H(1)   Bbb    -0.0026    -1.363    -0.486    -0.455 -0.1964  0.9119 -0.3602
              Bcc     0.0065     3.493     1.246     1.165  0.9751  0.2204  0.0262
 
              Baa    -0.0013    -0.712    -0.254    -0.237 -0.1783  0.5415  0.8215
    66 H(1)   Bbb    -0.0010    -0.537    -0.192    -0.179 -0.2443  0.7844 -0.5701
              Bcc     0.0023     1.249     0.446     0.417  0.9532  0.3023  0.0076
 
              Baa    -0.0007    -0.099    -0.035    -0.033  0.3867  0.5367  0.7500
    67 C(13)  Bbb    -0.0002    -0.025    -0.009    -0.008 -0.0686  0.8277 -0.5569
              Bcc     0.0009     0.123     0.044     0.041  0.9196 -0.1639 -0.3569
 
              Baa    -0.0005    -0.274    -0.098    -0.091  0.0973  0.4714  0.8765
    68 H(1)   Bbb    -0.0004    -0.202    -0.072    -0.067  0.0689  0.8754 -0.4785
              Bcc     0.0009     0.476     0.170     0.159  0.9929 -0.1070 -0.0527
 
              Baa    -0.0005    -0.256    -0.091    -0.085  0.0330  0.8646  0.5013
    69 H(1)   Bbb    -0.0004    -0.197    -0.070    -0.066  0.1811 -0.4985  0.8478
              Bcc     0.0008     0.453     0.162     0.151  0.9829  0.0628 -0.1730
 
              Baa    -0.0004    -0.219    -0.078    -0.073  0.3080  0.6845  0.6608
    70 H(1)   Bbb    -0.0002    -0.124    -0.044    -0.041 -0.0905  0.7125 -0.6958
              Bcc     0.0006     0.343     0.122     0.114  0.9471 -0.1545 -0.2814
 
              Baa    -0.0031    -0.418    -0.149    -0.139  0.2323 -0.3070  0.9229
    71 C(13)  Bbb     0.0001     0.014     0.005     0.005  0.8920 -0.3110 -0.3279
              Bcc     0.0030     0.404     0.144     0.135  0.3877  0.8995  0.2016
 
              Baa    -0.0038    -0.516    -0.184    -0.172  0.7122 -0.2541 -0.6544
    72 C(13)  Bbb    -0.0029    -0.383    -0.137    -0.128  0.6345  0.6319  0.4451
              Bcc     0.0067     0.899     0.321     0.300 -0.3004  0.7322 -0.6113
 
              Baa    -0.0035    -0.469    -0.167    -0.157  0.7239 -0.4379 -0.5332
    73 C(13)  Bbb    -0.0011    -0.152    -0.054    -0.051  0.6642  0.6515  0.3667
              Bcc     0.0046     0.621     0.222     0.207  0.1868 -0.6196  0.7624
 
              Baa    -0.0022    -0.292    -0.104    -0.097  0.3613 -0.3834  0.8500
    74 C(13)  Bbb     0.0005     0.068     0.024     0.023  0.8253 -0.2927 -0.4829
              Bcc     0.0017     0.223     0.080     0.075  0.4339  0.8760  0.2107
 
              Baa    -0.0009    -0.462    -0.165    -0.154  0.1119 -0.3457  0.9316
    75 H(1)   Bbb    -0.0003    -0.173    -0.062    -0.058  0.9791  0.1986 -0.0439
              Bcc     0.0012     0.635     0.227     0.212 -0.1698  0.9171  0.3607
 
              Baa    -0.0025    -0.331    -0.118    -0.110  0.3776 -0.3809  0.8440
    76 C(13)  Bbb     0.0004     0.050     0.018     0.017  0.7047 -0.4731 -0.5288
              Bcc     0.0021     0.281     0.100     0.094  0.6007  0.7944  0.0898
 
              Baa    -0.0017    -0.894    -0.319    -0.298  0.4692  0.0587  0.8811
    77 H(1)   Bbb    -0.0011    -0.608    -0.217    -0.203  0.7573 -0.5399 -0.3673
              Bcc     0.0028     1.502     0.536     0.501  0.4542  0.8397 -0.2978
 
              Baa    -0.0036    -0.484    -0.173    -0.161  0.7291 -0.4290 -0.5332
    78 C(13)  Bbb    -0.0023    -0.315    -0.112    -0.105  0.6181  0.7473  0.2440
              Bcc     0.0060     0.799     0.285     0.267  0.2938 -0.5075  0.8101
 
              Baa    -0.0004    -0.207    -0.074    -0.069  0.2078 -0.3824  0.9003
    79 H(1)   Bbb    -0.0001    -0.064    -0.023    -0.021  0.9310 -0.2050 -0.3019
              Bcc     0.0005     0.271     0.097     0.090  0.3000  0.9010  0.3134
 
              Baa    -0.0006    -0.304    -0.109    -0.102  0.2154 -0.0711  0.9739
    80 H(1)   Bbb    -0.0004    -0.219    -0.078    -0.073  0.7727 -0.5974 -0.2145
              Bcc     0.0010     0.523     0.187     0.174  0.5970  0.7988 -0.0738
 
              Baa    -0.0002    -0.031    -0.011    -0.010 -0.0137 -0.2912  0.9566
    81 C(13)  Bbb    -0.0002    -0.022    -0.008    -0.007  0.9269 -0.3626 -0.0971
              Bcc     0.0004     0.054     0.019     0.018  0.3751  0.8853  0.2748
 
              Baa    -0.0002    -0.111    -0.040    -0.037 -0.0215 -0.1645  0.9861
    82 H(1)   Bbb    -0.0001    -0.076    -0.027    -0.025  0.9558 -0.2925 -0.0279
              Bcc     0.0004     0.187     0.067     0.062  0.2931  0.9420  0.1636
 
              Baa    -0.0002    -0.110    -0.039    -0.037 -0.2369 -0.3625  0.9014
    83 H(1)   Bbb    -0.0002    -0.084    -0.030    -0.028  0.8952 -0.4419  0.0576
              Bcc     0.0004     0.194     0.069     0.065  0.3774  0.8206  0.4291
 
              Baa    -0.0002    -0.092    -0.033    -0.031 -0.3758  0.0184  0.9265
    84 H(1)   Bbb    -0.0001    -0.073    -0.026    -0.024  0.7750 -0.5419  0.3251
              Bcc     0.0003     0.165     0.059     0.055  0.5081  0.8402  0.1894
 
              Baa    -0.0040     0.289     0.103     0.096  0.8722 -0.1746 -0.4569
    85 O(17)  Bbb    -0.0033     0.241     0.086     0.080  0.3625  0.8579  0.3641
              Bcc     0.0073    -0.530    -0.189    -0.177  0.3284 -0.4832  0.8115
 
              Baa    -0.0100    -5.312    -1.895    -1.772  0.3635  0.3022  0.8812
    86 H(1)   Bbb    -0.0077    -4.090    -1.459    -1.364  0.7911 -0.5997 -0.1206
              Bcc     0.0176     9.401     3.355     3.136  0.4920  0.7409 -0.4571
 
              Baa    -0.0043    -0.580    -0.207    -0.194 -0.4937  0.0660  0.8671
    87 C(13)  Bbb    -0.0002    -0.031    -0.011    -0.010  0.5034  0.8348  0.2231
              Bcc     0.0046     0.612     0.218     0.204  0.7091 -0.5466  0.4454
 
              Baa    -0.0034    -0.450    -0.161    -0.150  0.1185  0.8921  0.4359
    88 C(13)  Bbb    -0.0004    -0.053    -0.019    -0.018  0.9008 -0.2812  0.3308
              Bcc     0.0037     0.503     0.179     0.168 -0.4177 -0.3535  0.8370
 
              Baa    -0.0032    -0.423    -0.151    -0.141  0.5125  0.6590  0.5505
    89 C(13)  Bbb    -0.0014    -0.184    -0.066    -0.061  0.8585 -0.4053 -0.3142
              Bcc     0.0045     0.607     0.217     0.202 -0.0160 -0.6337  0.7735
 
              Baa    -0.0025    -0.341    -0.122    -0.114 -0.2713 -0.1460  0.9514
    90 C(13)  Bbb     0.0005     0.061     0.022     0.020  0.3667  0.8982  0.2424
              Bcc     0.0021     0.280     0.100     0.093  0.8899 -0.4146  0.1901
 
              Baa    -0.0014    -0.767    -0.274    -0.256 -0.5720  0.0182  0.8201
    91 H(1)   Bbb    -0.0007    -0.363    -0.130    -0.121  0.1708  0.9805  0.0973
              Bcc     0.0021     1.130     0.403     0.377  0.8023 -0.1957  0.5639
 
              Baa    -0.0027    -0.366    -0.131    -0.122 -0.2483 -0.1343  0.9593
    92 C(13)  Bbb     0.0006     0.075     0.027     0.025  0.5838  0.7695  0.2589
              Bcc     0.0022     0.291     0.104     0.097  0.7730 -0.6243  0.1127
 
              Baa    -0.0015    -0.781    -0.279    -0.260 -0.3465  0.1198  0.9304
    93 H(1)   Bbb    -0.0006    -0.318    -0.113    -0.106  0.8516  0.4561  0.2584
              Bcc     0.0021     1.099     0.392     0.366 -0.3934  0.8818 -0.2601
 
              Baa    -0.0026    -0.351    -0.125    -0.117  0.4802  0.8493  0.2195
    94 C(13)  Bbb    -0.0011    -0.153    -0.054    -0.051  0.8547 -0.5092  0.1006
              Bcc     0.0038     0.504     0.180     0.168 -0.1972 -0.1393  0.9704
 
              Baa    -0.0005    -0.259    -0.092    -0.086 -0.3544  0.0023  0.9351
    95 H(1)   Bbb    -0.0004    -0.194    -0.069    -0.065  0.3456  0.9295  0.1286
              Bcc     0.0008     0.453     0.162     0.151  0.8689 -0.3687  0.3302
 
              Baa    -0.0005    -0.251    -0.090    -0.084 -0.1712  0.0689  0.9828
    96 H(1)   Bbb    -0.0003    -0.147    -0.052    -0.049  0.7112  0.6990  0.0749
              Bcc     0.0007     0.398     0.142     0.133 -0.6819  0.7118 -0.1686
 
              Baa    -0.0005    -0.278    -0.099    -0.093  0.4274  0.8353  0.3458
    97 H(1)   Bbb    -0.0003    -0.143    -0.051    -0.048 -0.3634 -0.1915  0.9117
              Bcc     0.0008     0.421     0.150     0.141  0.8278 -0.5154  0.2217
 

 ---------------------------------------------------------------------------------

 1\1\GINC-M9-15-2\SP\UM06L\Gen\C41H46Cl1N4Ni2O3(2)\MALLA1\24-Aug-2022\0
 \\#m06l/gen pseudo=read integral=ultrafine temperature=308 scrf=(read)
 \\Title Card Required\\0,2\C,0,3.131774,-0.194635,3.012918\C,0,2.27905
 3,0.623726,3.754733\C,0,0.91841,0.774005,3.354084\C,0,0.521067,0.14615
 2,2.114162\C,0,2.624784,-0.862884,1.875518\H,0,0.174445,1.945677,5.048
 364\H,0,4.173509,-0.365471,3.320231\H,0,2.634914,1.125718,4.667517\C,0
 ,-0.091049,1.455126,4.099413\C,0,-1.708809,0.822727,2.412305\C,0,-1.41
 3065,1.434532,3.651203\H,0,-2.226938,1.877864,4.24307\N,0,-0.736076,0.
 286132,1.612283\N,0,1.348854,-0.675877,1.42079\C,0,3.300376,-1.928142,
 1.1533\C,0,-3.02363,0.608737,1.839424\N,0,2.709147,-2.548322,0.16262\N
 ,0,-3.154442,-0.03475,0.701939\Ni,0,-1.24953,-0.038702,-0.227207\C,0,0
 .065082,1.164872,-1.124702\C,0,0.275592,2.430547,-0.639255\C,0,-1.2225
 43,-0.76886,-2.139269\H,0,-1.962616,-1.555446,-2.348623\C,0,-1.48685,0
 .675596,-2.252614\H,0,-0.838582,1.181071,-2.999949\C,0,0.158774,-1.069
 192,-1.927935\H,0,0.567883,-2.020928,-2.310076\C,0,0.999191,0.207367,-
 1.848249\H,0,1.28703,0.582288,-2.866501\H,0,-0.586684,2.908453,-0.1378
 63\C,0,-5.237955,0.689224,1.560597\H,0,-5.581692,1.640456,1.102749\H,0
 ,-6.06385,0.255425,2.155712\C,0,4.692319,-3.649721,0.84782\H,0,4.54509
 7,-4.47314,1.577149\H,0,5.736128,-3.67528,0.481991\C,0,3.612546,-3.639
 437,-0.27609\H,0,3.02905,-4.58503,-0.26658\C,0,-4.604102,-0.277265,0.5
 21187\H,0,-4.89314,0.018964,-0.507851\O,0,4.500798,-2.390167,1.560857\
 O,0,-4.14609,1.005045,2.478151\Ni,0,0.704825,-1.942889,0.012384\Cl,0,-
 0.370568,-3.944556,-0.205356\C,0,4.190664,-3.469123,-1.724415\C,0,5.02
 0356,-2.1736,-1.845665\H,0,4.40489,-1.279794,-1.612265\H,0,5.901816,-2
 .168922,-1.170568\H,0,5.401976,-2.056651,-2.881556\C,0,5.075049,-4.699
 704,-2.03182\H,0,4.493408,-5.642716,-1.95188\H,0,5.472257,-4.635766,-3
 .066254\H,0,5.948245,-4.778827,-1.350657\C,0,3.032977,-3.432931,-2.741
 302\H,0,2.419013,-2.521752,-2.611267\H,0,3.430152,-3.427095,-3.778068\
 H,0,2.366005,-4.313499,-2.633743\C,0,-4.991776,-1.79023,0.700013\C,0,-
 4.633589,-2.297239,2.113096\H,0,-3.541947,-2.227443,2.298121\H,0,-5.15
 9883,-1.733368,2.911976\H,0,-4.920421,-3.364193,2.22064\C,0,-4.2438,-2
 .640367,-0.348012\H,0,-4.47112,-2.297426,-1.37958\H,0,-3.145305,-2.607
 931,-0.202228\H,0,-4.560505,-3.702019,-0.273678\C,0,-6.51247,-1.925813
 ,0.45828\H,0,-6.795703,-1.558303,-0.551257\H,0,-6.816862,-2.99114,0.52
 6\H,0,-7.114287,-1.366017,1.205066\C,0,1.484878,3.257554,-0.639594\C,0
 ,1.468621,4.484481,0.079241\C,0,2.698267,2.939757,-1.321012\C,0,2.5760
 11,5.344214,0.135445\H,0,0.548849,4.771973,0.615508\C,0,3.808232,3.786
 168,-1.2738\H,0,2.773461,2.017484,-1.912641\C,0,3.765993,4.998549,-0.5
 43805\H,0,2.501358,6.279413,0.708644\H,0,4.736463,3.530251,-1.808201\C
 ,0,4.908298,6.987453,0.148966\H,0,4.141654,7.693365,-0.242512\H,0,4.73
 5909,6.838639,1.238677\H,0,5.912023,7.428221,0.000665\O,0,4.902781,5.7
 54419,-0.560717\H,0,1.942551,0.052438,-1.285045\C,0,-2.850582,1.284656
 ,-2.357681\C,0,-3.97164,0.531309,-2.783024\C,0,-3.017777,2.681702,-2.1
 81744\C,0,-5.214154,1.149626,-3.014384\H,0,-3.86589,-0.548713,-2.96601
 6\C,0,-4.262417,3.294941,-2.393889\H,0,-2.152019,3.290875,-1.878879\C,
 0,-5.369826,2.532181,-2.812533\H,0,-6.065623,0.542322,-3.361653\H,0,-4
 .366306,4.381678,-2.24335\H,0,-6.343273,3.015277,-2.992427\\Version=ES
 64L-G16RevB.01\State=2-A\HF=-2834.1834668\S2=1.135287\S2-1=0.\S2A=0.77
 2468\RMSD=2.459e-09\Dipole=0.6679016,2.6644495,1.2295646\Quadrupole=21
 .4582876,-16.753462,-4.7048256,-11.8419407,3.6140954,9.8214793\PG=C01 
 [X(C41H46Cl1N4Ni2O3)]\\@


 IN NATURE THERE ARE NEITHER REWARDS OR
 PUNISHMENTS -- THERE ARE CONSEQUENCES.

                            -- ROBERT GREEN INGERSOLL
 Job cpu time:       1 days 15 hours  3 minutes 42.1 seconds.
 Elapsed time:       0 days  3 hours 15 minutes 41.2 seconds.
 File lengths (MBytes):  RWF=   3735 Int=      0 D2E=      0 Chk=    238 Scr=      1
 Normal termination of Gaussian 16 at Wed Aug 24 18:34:41 2022.
