 Entering Gaussian System, Link 0=g16
 Input=Pro_R_E_ts1_4.com
 Output=Pro_R_E_ts1_4.log
 Initial command:
 /apps/gaussian16/B.01/AVX2/g16/l1.exe "/tmp/49628787/Gau-12160.inp" -scrdir="/tmp/49628787/"
 Entering Link 1 = /apps/gaussian16/B.01/AVX2/g16/l1.exe PID=     12161.
  
 Copyright (c) 1988-2017, Gaussian, Inc.  All Rights Reserved.
  
 This is part of the Gaussian(R) 16 program.  It is based on
 the Gaussian(R) 09 system (copyright 2009, Gaussian, Inc.),
 the Gaussian(R) 03 system (copyright 2003, Gaussian, Inc.),
 the Gaussian(R) 98 system (copyright 1998, Gaussian, Inc.),
 the Gaussian(R) 94 system (copyright 1995, Gaussian, Inc.),
 the Gaussian 92(TM) system (copyright 1992, Gaussian, Inc.),
 the Gaussian 90(TM) system (copyright 1990, Gaussian, Inc.),
 the Gaussian 88(TM) system (copyright 1988, Gaussian, Inc.),
 the Gaussian 86(TM) system (copyright 1986, Carnegie Mellon
 University), and the Gaussian 82(TM) system (copyright 1983,
 Carnegie Mellon University). Gaussian is a federally registered
 trademark of Gaussian, Inc.
  
 This software contains proprietary and confidential information,
 including trade secrets, belonging to Gaussian, Inc.
  
 This software is provided under written license and may be
 used, copied, transmitted, or stored only in accord with that
 written license.
  
 The following legend is applicable only to US Government
 contracts under FAR:
  
                    RESTRICTED RIGHTS LEGEND
  
 Use, reproduction and disclosure by the US Government is
 subject to restrictions as set forth in subparagraphs (a)
 and (c) of the Commercial Computer Software - Restricted
 Rights clause in FAR 52.227-19.
  
 Gaussian, Inc.
 340 Quinnipiac St., Bldg. 40, Wallingford CT 06492
  
  
 ---------------------------------------------------------------
 Warning -- This program may not be used in any manner that
 competes with the business of Gaussian, Inc. or will provide
 assistance to any competitor of Gaussian, Inc.  The licensee
 of this program is prohibited from giving any competitor of
 Gaussian, Inc. access to this program.  By using this program,
 the user acknowledges that Gaussian, Inc. is engaged in the
 business of creating and licensing software in the field of
 computational chemistry and represents and warrants to the
 licensee that it is not a competitor of Gaussian, Inc. and that
 it will not use this program in any manner prohibited above.
 ---------------------------------------------------------------
  

 Cite this work as:
 Gaussian 16, Revision B.01,
 M. J. Frisch, G. W. Trucks, H. B. Schlegel, G. E. Scuseria, 
 M. A. Robb, J. R. Cheeseman, G. Scalmani, V. Barone, 
 G. A. Petersson, H. Nakatsuji, X. Li, M. Caricato, A. V. Marenich, 
 J. Bloino, B. G. Janesko, R. Gomperts, B. Mennucci, H. P. Hratchian, 
 J. V. Ortiz, A. F. Izmaylov, J. L. Sonnenberg, D. Williams-Young, 
 F. Ding, F. Lipparini, F. Egidi, J. Goings, B. Peng, A. Petrone, 
 T. Henderson, D. Ranasinghe, V. G. Zakrzewski, J. Gao, N. Rega, 
 G. Zheng, W. Liang, M. Hada, M. Ehara, K. Toyota, R. Fukuda, 
 J. Hasegawa, M. Ishida, T. Nakajima, Y. Honda, O. Kitao, H. Nakai, 
 T. Vreven, K. Throssell, J. A. Montgomery, Jr., J. E. Peralta, 
 F. Ogliaro, M. J. Bearpark, J. J. Heyd, E. N. Brothers, K. N. Kudin, 
 V. N. Staroverov, T. A. Keith, R. Kobayashi, J. Normand, 
 K. Raghavachari, A. P. Rendell, J. C. Burant, S. S. Iyengar, 
 J. Tomasi, M. Cossi, J. M. Millam, M. Klene, C. Adamo, R. Cammi, 
 J. W. Ochterski, R. L. Martin, K. Morokuma, O. Farkas, 
 J. B. Foresman, and D. J. Fox, Gaussian, Inc., Wallingford CT, 2016.
 
 ******************************************
 Gaussian 16:  ES64L-G16RevB.01 20-Dec-2017
                 2-Jun-2022 
 ******************************************
 %nprocshared=12
 Will use up to   12 processors via shared memory.
 %mem=24GB
 %chk=Pro_R_E_ts1_4.chk
 ----------------------------------------------------------------------
 #opt=(calcfc,ts,noeigen) freq=noraman bp86/gen pseudo=read integral=ul
 trafine temperature=308 scrf=(read)
 ----------------------------------------------------------------------
 1/5=1,10=4,11=1,18=20,26=6,38=1,40=2,112=308000/1,3;
 2/9=110,12=2,17=6,18=5,40=1/2;
 3/5=7,11=2,16=1,17=8,25=1,30=1,70=2203,71=2,74=404,75=-5,140=1/1,2,3;
 4//1;
 5/5=2,38=5/2;
 8/6=4,10=90,11=11/1;
 11/6=1,8=1,9=11,15=111,16=1/1,2,10;
 10/6=1,13=1/2;
 6/7=2,8=2,9=2,10=2,28=1/1;
 7/10=1,18=20,25=1/1,2,3,16;
 1/5=1,10=4,11=1,18=20,26=6/3(2);
 2/9=110/2;
 99//99;
 2/9=110/2;
 3/5=7,6=1,11=2,16=1,17=8,25=1,30=1,70=2205,71=1,74=404,75=-5,82=7/1,2,3;
 4/5=5,16=3,69=1/1;
 5/5=2,38=5/2;
 7//1,2,3,16;
 1/5=1,11=1,18=20,26=6/3(-5);
 2/9=110/2;
 6/7=2,8=2,9=2,10=2,19=2,28=1/1;
 99/9=1/99;
 -------------------
 Title Card Required
 -------------------
 Symbolic Z-matrix:
 Charge =  0 Multiplicity = 4
 C                     2.42407  -1.14421   3.2567 
 C                     1.49352  -0.53231   4.10841 
 C                     0.22684  -0.1212    3.61106 
 C                    -0.0316   -0.33433   2.20234 
 C                     2.09614  -1.30737   1.89868 
 H                    -0.65276   0.63548   5.47143 
 H                     3.40178  -1.48548   3.62466 
 H                     1.72863  -0.37886   5.17291 
 C                    -0.82422   0.44967   4.40033 
 C                    -2.2623    0.42558   2.45267 
 C                    -2.06678   0.70945   3.82189 
 H                    -2.90806   1.09129   4.41871 
 N                    -1.23436  -0.0266    1.64942 
 N                     0.89662  -0.89604   1.39663 
 C                     2.9416   -1.94914   0.89323 
 C                    -3.50111   0.42588   1.72622 
 N                     2.70097  -1.85352  -0.385 
 N                    -3.52975  -0.01125   0.47403 
 Ni                   -1.6605   -0.14546  -0.22906 
 C                     0.11556   0.51714  -0.70369 
 C                     0.58178   1.77477  -0.46357 
 C                    -2.03011  -0.38184  -2.22304 
 H                    -3.13018  -0.3946   -2.2547 
 C                    -1.30192   0.83463  -2.45077 
 H                    -0.33468   0.73104  -2.96365 
 C                    -1.32839  -1.63955  -2.16888 
 H                    -1.91413  -2.53841  -1.92075 
 C                     0.05892  -1.80399  -2.42442 
 H                     0.59224  -1.04322  -3.01887 
 H                    -0.14548   2.58284  -0.69363 
 C                    -5.62923   0.77733   1.15797 
 H                    -5.75873   1.81769   0.79082 
 H                    -6.59377   0.4077    1.55197 
 C                     4.48277  -3.36741   0.08782 
 H                     4.37319  -4.46347   0.20298 
 H                     5.56126  -3.11907   0.02065 
 C                     3.62452  -2.77653  -1.07683 
 H                     2.99538  -3.57834  -1.52658 
 C                    -4.96061  -0.14319   0.10493 
 H                    -5.1278    0.25717  -0.91893 
 O                     3.9582   -2.74133   1.29585 
 O                    -4.67647   0.80964   2.26437 
 Ni                    0.51667  -1.34667  -0.49576 
 Cl                    0.12876  -3.62635   0.10066 
 C                     4.455    -2.14236  -2.24189 
 C                     5.37878  -1.01339  -1.74053 
 H                     4.79565  -0.19238  -1.2772 
 H                     6.12369  -1.3698   -0.99818 
 H                     5.94869  -0.58079  -2.58929 
 C                     5.30018  -3.26625  -2.885 
 H                     4.6575   -4.09421  -3.25336 
 H                     5.87227  -2.8718   -3.75068 
 H                     6.03693  -3.69773  -2.17443 
 C                     3.49087  -1.57053  -3.30105 
 H                     2.88088  -0.74641  -2.88031 
 H                     4.06042  -1.17093  -4.16635 
 H                     2.79971  -2.35169  -3.68111 
 C                    -5.48583  -1.6269    0.11627 
 C                    -5.38529  -2.25065   1.5254 
 H                    -4.3342   -2.28153   1.87981 
 H                    -5.99063  -1.70353   2.27733 
 H                    -5.75605  -3.29655   1.50293 
 C                    -4.6557   -2.47825  -0.86438 
 H                    -4.70384  -2.07522  -1.89862 
 H                    -3.5943   -2.52341  -0.54884 
 H                    -5.04446  -3.51728  -0.89527 
 C                    -6.95802  -1.61508  -0.35463 
 H                    -7.05525  -1.17288  -1.36934 
 H                    -7.35244  -2.65137  -0.40105 
 H                    -7.61973  -1.04443   0.33045 
 C                     1.85852   2.3031    0.02369 
 C                     1.95074   3.68509   0.33492 
 C                     3.03108   1.51971   0.2015 
 C                     3.13269   4.26422   0.82241 
 H                     1.06378   4.32535   0.19534 
 C                     4.21495   2.083     0.68061 
 H                     2.99931   0.45487  -0.06791 
 C                     4.28113   3.46075   1.00457 
 H                     3.14949   5.33866   1.05425 
 H                     5.12197   1.47238   0.8114 
 C                     5.60655   5.29238   1.79861 
 H                     5.42897   5.94577   0.91513 
 H                     4.90583   5.58807   2.61129 
 H                     6.64581   5.43558   2.14933 
 O                     5.48116   3.91346   1.46897 
 H                     0.43663  -2.83348  -2.51689 
 C                    -1.88508   2.17467  -2.57879 
 C                    -3.19279   2.5102   -2.13449 
 C                    -1.10933   3.20406  -3.17937 
 C                    -3.7071    3.80196  -2.30984 
 H                    -3.80524   1.7461   -1.63447 
 C                    -1.62254   4.5      -3.34739 
 H                    -0.09059   2.96977  -3.52924 
 C                    -2.92611   4.80618  -2.91713 
 H                    -4.72734   4.03326  -1.96376 
 H                    -1.0003    5.27582  -3.82151 
 H                    -3.33197   5.82157  -3.04906 
 

 GradGradGradGradGradGradGradGradGradGradGradGradGradGradGradGradGradGrad
 Berny optimization.
 Initialization pass.
                           ----------------------------
                           !    Initial Parameters    !
                           ! (Angstroms and Degrees)  !
 --------------------------                            --------------------------
 ! Name  Definition              Value          Derivative Info.                !
 --------------------------------------------------------------------------------
 ! R1    R(1,2)                  1.4021         calculate D2E/DX2 analytically  !
 ! R2    R(1,5)                  1.4065         calculate D2E/DX2 analytically  !
 ! R3    R(1,7)                  1.099          calculate D2E/DX2 analytically  !
 ! R4    R(2,3)                  1.4216         calculate D2E/DX2 analytically  !
 ! R5    R(2,8)                  1.1009         calculate D2E/DX2 analytically  !
 ! R6    R(3,4)                  1.448          calculate D2E/DX2 analytically  !
 ! R7    R(3,9)                  1.433          calculate D2E/DX2 analytically  !
 ! R8    R(4,13)                 1.3591         calculate D2E/DX2 analytically  !
 ! R9    R(4,14)                 1.3514         calculate D2E/DX2 analytically  !
 ! R10   R(5,14)                 1.3639         calculate D2E/DX2 analytically  !
 ! R11   R(5,15)                 1.462          calculate D2E/DX2 analytically  !
 ! R12   R(6,9)                  1.1005         calculate D2E/DX2 analytically  !
 ! R13   R(9,11)                 1.395          calculate D2E/DX2 analytically  !
 ! R14   R(10,11)                1.4119         calculate D2E/DX2 analytically  !
 ! R15   R(10,13)                1.3807         calculate D2E/DX2 analytically  !
 ! R16   R(10,16)                1.4361         calculate D2E/DX2 analytically  !
 ! R17   R(11,12)                1.0999         calculate D2E/DX2 analytically  !
 ! R18   R(13,19)                1.9299         calculate D2E/DX2 analytically  !
 ! R19   R(14,43)                1.9821         calculate D2E/DX2 analytically  !
 ! R20   R(15,17)                1.3042         calculate D2E/DX2 analytically  !
 ! R21   R(15,41)                1.3502         calculate D2E/DX2 analytically  !
 ! R22   R(16,18)                1.3266         calculate D2E/DX2 analytically  !
 ! R23   R(16,42)                1.3485         calculate D2E/DX2 analytically  !
 ! R24   R(17,37)                1.4777         calculate D2E/DX2 analytically  !
 ! R25   R(18,19)                2.0016         calculate D2E/DX2 analytically  !
 ! R26   R(18,39)                1.4836         calculate D2E/DX2 analytically  !
 ! R27   R(19,20)                1.9542         calculate D2E/DX2 analytically  !
 ! R28   R(19,22)                2.0417         calculate D2E/DX2 analytically  !
 ! R29   R(19,43)                2.5008         calculate D2E/DX2 analytically  !
 ! R30   R(20,21)                1.3626         calculate D2E/DX2 analytically  !
 ! R31   R(20,43)                1.9178         calculate D2E/DX2 analytically  !
 ! R32   R(21,30)                1.1112         calculate D2E/DX2 analytically  !
 ! R33   R(21,71)                1.4651         calculate D2E/DX2 analytically  !
 ! R34   R(22,23)                1.1006         calculate D2E/DX2 analytically  !
 ! R35   R(22,24)                1.4359         calculate D2E/DX2 analytically  !
 ! R36   R(22,26)                1.4412         calculate D2E/DX2 analytically  !
 ! R37   R(24,25)                1.0997         calculate D2E/DX2 analytically  !
 ! R38   R(24,87)                1.467          calculate D2E/DX2 analytically  !
 ! R39   R(26,27)                1.1012         calculate D2E/DX2 analytically  !
 ! R40   R(26,28)                1.4202         calculate D2E/DX2 analytically  !
 ! R41   R(28,29)                1.103          calculate D2E/DX2 analytically  !
 ! R42   R(28,43)                2.0343         calculate D2E/DX2 analytically  !
 ! R43   R(28,86)                1.1005         calculate D2E/DX2 analytically  !
 ! R44   R(31,32)                1.1108         calculate D2E/DX2 analytically  !
 ! R45   R(31,33)                1.1055         calculate D2E/DX2 analytically  !
 ! R46   R(31,39)                1.5503         calculate D2E/DX2 analytically  !
 ! R47   R(31,42)                1.4604         calculate D2E/DX2 analytically  !
 ! R48   R(34,35)                1.1075         calculate D2E/DX2 analytically  !
 ! R49   R(34,36)                1.1087         calculate D2E/DX2 analytically  !
 ! R50   R(34,37)                1.5627         calculate D2E/DX2 analytically  !
 ! R51   R(34,41)                1.4582         calculate D2E/DX2 analytically  !
 ! R52   R(37,38)                1.114          calculate D2E/DX2 analytically  !
 ! R53   R(37,45)                1.565          calculate D2E/DX2 analytically  !
 ! R54   R(39,40)                1.112          calculate D2E/DX2 analytically  !
 ! R55   R(39,58)                1.574          calculate D2E/DX2 analytically  !
 ! R56   R(43,44)                2.3881         calculate D2E/DX2 analytically  !
 ! R57   R(45,46)                1.5425         calculate D2E/DX2 analytically  !
 ! R58   R(45,50)                1.5463         calculate D2E/DX2 analytically  !
 ! R59   R(45,54)                1.5422         calculate D2E/DX2 analytically  !
 ! R60   R(46,47)                1.1085         calculate D2E/DX2 analytically  !
 ! R61   R(46,48)                1.1104         calculate D2E/DX2 analytically  !
 ! R62   R(46,49)                1.1101         calculate D2E/DX2 analytically  !
 ! R63   R(50,51)                1.111          calculate D2E/DX2 analytically  !
 ! R64   R(50,52)                1.1101         calculate D2E/DX2 analytically  !
 ! R65   R(50,53)                1.1108         calculate D2E/DX2 analytically  !
 ! R66   R(54,55)                1.1083         calculate D2E/DX2 analytically  !
 ! R67   R(54,56)                1.1103         calculate D2E/DX2 analytically  !
 ! R68   R(54,57)                1.1101         calculate D2E/DX2 analytically  !
 ! R69   R(58,59)                1.5443         calculate D2E/DX2 analytically  !
 ! R70   R(58,63)                1.5413         calculate D2E/DX2 analytically  !
 ! R71   R(58,67)                1.5457         calculate D2E/DX2 analytically  !
 ! R72   R(59,60)                1.1097         calculate D2E/DX2 analytically  !
 ! R73   R(59,61)                1.1096         calculate D2E/DX2 analytically  !
 ! R74   R(59,62)                1.1099         calculate D2E/DX2 analytically  !
 ! R75   R(63,64)                1.111          calculate D2E/DX2 analytically  !
 ! R76   R(63,65)                1.1082         calculate D2E/DX2 analytically  !
 ! R77   R(63,66)                1.1098         calculate D2E/DX2 analytically  !
 ! R78   R(67,68)                1.1111         calculate D2E/DX2 analytically  !
 ! R79   R(67,69)                1.1098         calculate D2E/DX2 analytically  !
 ! R80   R(67,70)                1.1103         calculate D2E/DX2 analytically  !
 ! R81   R(71,72)                1.4196         calculate D2E/DX2 analytically  !
 ! R82   R(71,73)                1.4213         calculate D2E/DX2 analytically  !
 ! R83   R(72,74)                1.4036         calculate D2E/DX2 analytically  !
 ! R84   R(72,75)                1.1028         calculate D2E/DX2 analytically  !
 ! R85   R(73,76)                1.3958         calculate D2E/DX2 analytically  !
 ! R86   R(73,77)                1.0988         calculate D2E/DX2 analytically  !
 ! R87   R(74,78)                1.4134         calculate D2E/DX2 analytically  !
 ! R88   R(74,79)                1.0993         calculate D2E/DX2 analytically  !
 ! R89   R(76,78)                1.4169         calculate D2E/DX2 analytically  !
 ! R90   R(76,80)                1.1012         calculate D2E/DX2 analytically  !
 ! R91   R(78,85)                1.3641         calculate D2E/DX2 analytically  !
 ! R92   R(81,82)                1.1131         calculate D2E/DX2 analytically  !
 ! R93   R(81,83)                1.1131         calculate D2E/DX2 analytically  !
 ! R94   R(81,84)                1.1062         calculate D2E/DX2 analytically  !
 ! R95   R(81,85)                1.4233         calculate D2E/DX2 analytically  !
 ! R96   R(87,88)                1.4213         calculate D2E/DX2 analytically  !
 ! R97   R(87,89)                1.422          calculate D2E/DX2 analytically  !
 ! R98   R(88,90)                1.4014         calculate D2E/DX2 analytically  !
 ! R99   R(88,91)                1.0995         calculate D2E/DX2 analytically  !
 ! R100  R(89,92)                1.404          calculate D2E/DX2 analytically  !
 ! R101  R(89,93)                1.1023         calculate D2E/DX2 analytically  !
 ! R102  R(90,94)                1.4097         calculate D2E/DX2 analytically  !
 ! R103  R(90,95)                1.1019         calculate D2E/DX2 analytically  !
 ! R104  R(92,94)                1.4065         calculate D2E/DX2 analytically  !
 ! R105  R(92,96)                1.1018         calculate D2E/DX2 analytically  !
 ! R106  R(94,97)                1.1014         calculate D2E/DX2 analytically  !
 ! A1    A(2,1,5)              118.8426         calculate D2E/DX2 analytically  !
 ! A2    A(2,1,7)              121.5066         calculate D2E/DX2 analytically  !
 ! A3    A(5,1,7)              119.6469         calculate D2E/DX2 analytically  !
 ! A4    A(1,2,3)              120.3362         calculate D2E/DX2 analytically  !
 ! A5    A(1,2,8)              120.4292         calculate D2E/DX2 analytically  !
 ! A6    A(3,2,8)              119.2277         calculate D2E/DX2 analytically  !
 ! A7    A(2,3,4)              117.1835         calculate D2E/DX2 analytically  !
 ! A8    A(2,3,9)              125.1734         calculate D2E/DX2 analytically  !
 ! A9    A(4,3,9)              117.6168         calculate D2E/DX2 analytically  !
 ! A10   A(3,4,13)             121.361          calculate D2E/DX2 analytically  !
 ! A11   A(3,4,14)             121.2395         calculate D2E/DX2 analytically  !
 ! A12   A(13,4,14)            117.3499         calculate D2E/DX2 analytically  !
 ! A13   A(1,5,14)             121.7002         calculate D2E/DX2 analytically  !
 ! A14   A(1,5,15)             125.4557         calculate D2E/DX2 analytically  !
 ! A15   A(14,5,15)            112.8194         calculate D2E/DX2 analytically  !
 ! A16   A(3,9,6)              119.2769         calculate D2E/DX2 analytically  !
 ! A17   A(3,9,11)             119.9414         calculate D2E/DX2 analytically  !
 ! A18   A(6,9,11)             120.7228         calculate D2E/DX2 analytically  !
 ! A19   A(11,10,13)           121.797          calculate D2E/DX2 analytically  !
 ! A20   A(11,10,16)           127.5867         calculate D2E/DX2 analytically  !
 ! A21   A(13,10,16)           110.3653         calculate D2E/DX2 analytically  !
 ! A22   A(9,11,10)            119.2097         calculate D2E/DX2 analytically  !
 ! A23   A(9,11,12)            121.3963         calculate D2E/DX2 analytically  !
 ! A24   A(10,11,12)           119.3455         calculate D2E/DX2 analytically  !
 ! A25   A(4,13,10)            119.759          calculate D2E/DX2 analytically  !
 ! A26   A(4,13,19)            125.2732         calculate D2E/DX2 analytically  !
 ! A27   A(10,13,19)           114.9641         calculate D2E/DX2 analytically  !
 ! A28   A(4,14,5)             120.6628         calculate D2E/DX2 analytically  !
 ! A29   A(4,14,43)            122.1448         calculate D2E/DX2 analytically  !
 ! A30   A(5,14,43)            116.8393         calculate D2E/DX2 analytically  !
 ! A31   A(5,15,17)            122.3526         calculate D2E/DX2 analytically  !
 ! A32   A(5,15,41)            119.2            calculate D2E/DX2 analytically  !
 ! A33   A(17,15,41)           118.3056         calculate D2E/DX2 analytically  !
 ! A34   A(10,16,18)           119.738          calculate D2E/DX2 analytically  !
 ! A35   A(10,16,42)           123.3715         calculate D2E/DX2 analytically  !
 ! A36   A(18,16,42)           116.8498         calculate D2E/DX2 analytically  !
 ! A37   A(15,17,37)           107.3227         calculate D2E/DX2 analytically  !
 ! A38   A(16,18,19)           109.4806         calculate D2E/DX2 analytically  !
 ! A39   A(16,18,39)           106.5567         calculate D2E/DX2 analytically  !
 ! A40   A(19,18,39)           143.8364         calculate D2E/DX2 analytically  !
 ! A41   A(13,19,18)            81.9624         calculate D2E/DX2 analytically  !
 ! A42   A(13,19,20)            90.8503         calculate D2E/DX2 analytically  !
 ! A43   A(13,19,43)            86.6264         calculate D2E/DX2 analytically  !
 ! A44   A(18,19,20)           155.6918         calculate D2E/DX2 analytically  !
 ! A45   A(18,19,22)           100.472          calculate D2E/DX2 analytically  !
 ! A46   A(18,19,43)           151.9677         calculate D2E/DX2 analytically  !
 ! A47   A(20,19,22)            88.0848         calculate D2E/DX2 analytically  !
 ! A48   A(22,19,43)            89.8762         calculate D2E/DX2 analytically  !
 ! A49   A(19,20,21)           125.5302         calculate D2E/DX2 analytically  !
 ! A50   A(21,20,43)           143.7382         calculate D2E/DX2 analytically  !
 ! A51   A(20,21,30)           114.2522         calculate D2E/DX2 analytically  !
 ! A52   A(20,21,71)           133.5982         calculate D2E/DX2 analytically  !
 ! A53   A(30,21,71)           112.1444         calculate D2E/DX2 analytically  !
 ! A54   A(19,22,23)           102.1444         calculate D2E/DX2 analytically  !
 ! A55   A(19,22,24)            87.9945         calculate D2E/DX2 analytically  !
 ! A56   A(19,22,26)            88.6355         calculate D2E/DX2 analytically  !
 ! A57   A(23,22,24)           120.8063         calculate D2E/DX2 analytically  !
 ! A58   A(23,22,26)           118.5294         calculate D2E/DX2 analytically  !
 ! A59   A(24,22,26)           119.8899         calculate D2E/DX2 analytically  !
 ! A60   A(22,24,25)           116.1167         calculate D2E/DX2 analytically  !
 ! A61   A(22,24,87)           125.8797         calculate D2E/DX2 analytically  !
 ! A62   A(25,24,87)           113.2646         calculate D2E/DX2 analytically  !
 ! A63   A(22,26,27)           117.504          calculate D2E/DX2 analytically  !
 ! A64   A(22,26,28)           124.7422         calculate D2E/DX2 analytically  !
 ! A65   A(27,26,28)           117.7511         calculate D2E/DX2 analytically  !
 ! A66   A(26,28,29)           119.3037         calculate D2E/DX2 analytically  !
 ! A67   A(26,28,43)            91.3288         calculate D2E/DX2 analytically  !
 ! A68   A(26,28,86)           117.3037         calculate D2E/DX2 analytically  !
 ! A69   A(29,28,43)           104.3065         calculate D2E/DX2 analytically  !
 ! A70   A(29,28,86)           115.7214         calculate D2E/DX2 analytically  !
 ! A71   A(43,28,86)           102.2829         calculate D2E/DX2 analytically  !
 ! A72   A(32,31,33)           109.2215         calculate D2E/DX2 analytically  !
 ! A73   A(32,31,39)           112.4504         calculate D2E/DX2 analytically  !
 ! A74   A(32,31,42)           107.8024         calculate D2E/DX2 analytically  !
 ! A75   A(33,31,39)           114.8249         calculate D2E/DX2 analytically  !
 ! A76   A(33,31,42)           107.8533         calculate D2E/DX2 analytically  !
 ! A77   A(39,31,42)           104.2625         calculate D2E/DX2 analytically  !
 ! A78   A(35,34,36)           108.9178         calculate D2E/DX2 analytically  !
 ! A79   A(35,34,37)           113.4126         calculate D2E/DX2 analytically  !
 ! A80   A(35,34,41)           107.6472         calculate D2E/DX2 analytically  !
 ! A81   A(36,34,37)           113.8516         calculate D2E/DX2 analytically  !
 ! A82   A(36,34,41)           107.6939         calculate D2E/DX2 analytically  !
 ! A83   A(37,34,41)           104.9207         calculate D2E/DX2 analytically  !
 ! A84   A(17,37,34)           103.3271         calculate D2E/DX2 analytically  !
 ! A85   A(17,37,38)           106.5967         calculate D2E/DX2 analytically  !
 ! A86   A(17,37,45)           115.2829         calculate D2E/DX2 analytically  !
 ! A87   A(34,37,38)           109.8094         calculate D2E/DX2 analytically  !
 ! A88   A(34,37,45)           114.6193         calculate D2E/DX2 analytically  !
 ! A89   A(38,37,45)           106.9062         calculate D2E/DX2 analytically  !
 ! A90   A(18,39,31)           101.1959         calculate D2E/DX2 analytically  !
 ! A91   A(18,39,40)           110.0024         calculate D2E/DX2 analytically  !
 ! A92   A(18,39,58)           113.8206         calculate D2E/DX2 analytically  !
 ! A93   A(31,39,40)           110.2919         calculate D2E/DX2 analytically  !
 ! A94   A(31,39,58)           114.2626         calculate D2E/DX2 analytically  !
 ! A95   A(40,39,58)           107.2089         calculate D2E/DX2 analytically  !
 ! A96   A(15,41,34)           106.0051         calculate D2E/DX2 analytically  !
 ! A97   A(16,42,31)           105.07           calculate D2E/DX2 analytically  !
 ! A98   A(14,43,19)            87.4703         calculate D2E/DX2 analytically  !
 ! A99   A(14,43,20)            85.5639         calculate D2E/DX2 analytically  !
 ! A100  A(14,43,44)            90.5572         calculate D2E/DX2 analytically  !
 ! A101  A(19,43,28)            90.756          calculate D2E/DX2 analytically  !
 ! A102  A(19,43,44)           106.8861         calculate D2E/DX2 analytically  !
 ! A103  A(20,43,28)            93.935          calculate D2E/DX2 analytically  !
 ! A104  A(20,43,44)           157.0475         calculate D2E/DX2 analytically  !
 ! A105  A(28,43,44)            89.1766         calculate D2E/DX2 analytically  !
 ! A106  A(37,45,46)           111.865          calculate D2E/DX2 analytically  !
 ! A107  A(37,45,50)           107.7665         calculate D2E/DX2 analytically  !
 ! A108  A(37,45,54)           109.2555         calculate D2E/DX2 analytically  !
 ! A109  A(46,45,50)           109.8654         calculate D2E/DX2 analytically  !
 ! A110  A(46,45,54)           109.0412         calculate D2E/DX2 analytically  !
 ! A111  A(50,45,54)           108.9997         calculate D2E/DX2 analytically  !
 ! A112  A(45,46,47)           111.278          calculate D2E/DX2 analytically  !
 ! A113  A(45,46,48)           112.5895         calculate D2E/DX2 analytically  !
 ! A114  A(45,46,49)           110.131          calculate D2E/DX2 analytically  !
 ! A115  A(47,46,48)           108.1316         calculate D2E/DX2 analytically  !
 ! A116  A(47,46,49)           107.519          calculate D2E/DX2 analytically  !
 ! A117  A(48,46,49)           106.9675         calculate D2E/DX2 analytically  !
 ! A118  A(45,50,51)           111.3084         calculate D2E/DX2 analytically  !
 ! A119  A(45,50,52)           110.35           calculate D2E/DX2 analytically  !
 ! A120  A(45,50,53)           112.2594         calculate D2E/DX2 analytically  !
 ! A121  A(51,50,52)           107.721          calculate D2E/DX2 analytically  !
 ! A122  A(51,50,53)           107.8363         calculate D2E/DX2 analytically  !
 ! A123  A(52,50,53)           107.1609         calculate D2E/DX2 analytically  !
 ! A124  A(45,54,55)           111.0438         calculate D2E/DX2 analytically  !
 ! A125  A(45,54,56)           110.3651         calculate D2E/DX2 analytically  !
 ! A126  A(45,54,57)           111.3123         calculate D2E/DX2 analytically  !
 ! A127  A(55,54,56)           108.0932         calculate D2E/DX2 analytically  !
 ! A128  A(55,54,57)           108.0919         calculate D2E/DX2 analytically  !
 ! A129  A(56,54,57)           107.8065         calculate D2E/DX2 analytically  !
 ! A130  A(39,58,59)           111.4442         calculate D2E/DX2 analytically  !
 ! A131  A(39,58,63)           109.6566         calculate D2E/DX2 analytically  !
 ! A132  A(39,58,67)           107.9639         calculate D2E/DX2 analytically  !
 ! A133  A(59,58,63)           108.8078         calculate D2E/DX2 analytically  !
 ! A134  A(59,58,67)           110.0646         calculate D2E/DX2 analytically  !
 ! A135  A(63,58,67)           108.8665         calculate D2E/DX2 analytically  !
 ! A136  A(58,59,60)           111.3668         calculate D2E/DX2 analytically  !
 ! A137  A(58,59,61)           112.5615         calculate D2E/DX2 analytically  !
 ! A138  A(58,59,62)           109.9009         calculate D2E/DX2 analytically  !
 ! A139  A(60,59,61)           108.3034         calculate D2E/DX2 analytically  !
 ! A140  A(60,59,62)           107.2578         calculate D2E/DX2 analytically  !
 ! A141  A(61,59,62)           107.2251         calculate D2E/DX2 analytically  !
 ! A142  A(58,63,64)           111.6269         calculate D2E/DX2 analytically  !
 ! A143  A(58,63,65)           110.9272         calculate D2E/DX2 analytically  !
 ! A144  A(58,63,66)           110.2536         calculate D2E/DX2 analytically  !
 ! A145  A(64,63,65)           108.7427         calculate D2E/DX2 analytically  !
 ! A146  A(64,63,66)           107.37           calculate D2E/DX2 analytically  !
 ! A147  A(65,63,66)           107.7744         calculate D2E/DX2 analytically  !
 ! A148  A(58,67,68)           111.3824         calculate D2E/DX2 analytically  !
 ! A149  A(58,67,69)           110.1275         calculate D2E/DX2 analytically  !
 ! A150  A(58,67,70)           112.5551         calculate D2E/DX2 analytically  !
 ! A151  A(68,67,69)           107.5966         calculate D2E/DX2 analytically  !
 ! A152  A(68,67,70)           107.8648         calculate D2E/DX2 analytically  !
 ! A153  A(69,67,70)           107.0923         calculate D2E/DX2 analytically  !
 ! A154  A(21,71,72)           118.7227         calculate D2E/DX2 analytically  !
 ! A155  A(21,71,73)           124.1763         calculate D2E/DX2 analytically  !
 ! A156  A(72,71,73)           117.0998         calculate D2E/DX2 analytically  !
 ! A157  A(71,72,74)           122.1763         calculate D2E/DX2 analytically  !
 ! A158  A(71,72,75)           119.0263         calculate D2E/DX2 analytically  !
 ! A159  A(74,72,75)           118.7964         calculate D2E/DX2 analytically  !
 ! A160  A(71,73,76)           121.3458         calculate D2E/DX2 analytically  !
 ! A161  A(71,73,77)           118.6574         calculate D2E/DX2 analytically  !
 ! A162  A(76,73,77)           119.9829         calculate D2E/DX2 analytically  !
 ! A163  A(72,74,78)           119.6337         calculate D2E/DX2 analytically  !
 ! A164  A(72,74,79)           119.3012         calculate D2E/DX2 analytically  !
 ! A165  A(78,74,79)           121.065          calculate D2E/DX2 analytically  !
 ! A166  A(73,76,78)           120.6977         calculate D2E/DX2 analytically  !
 ! A167  A(73,76,80)           121.0361         calculate D2E/DX2 analytically  !
 ! A168  A(78,76,80)           118.2653         calculate D2E/DX2 analytically  !
 ! A169  A(74,78,76)           119.035          calculate D2E/DX2 analytically  !
 ! A170  A(74,78,85)           124.7535         calculate D2E/DX2 analytically  !
 ! A171  A(76,78,85)           116.2098         calculate D2E/DX2 analytically  !
 ! A172  A(82,81,83)           108.8528         calculate D2E/DX2 analytically  !
 ! A173  A(82,81,84)           108.9991         calculate D2E/DX2 analytically  !
 ! A174  A(82,81,85)           111.7659         calculate D2E/DX2 analytically  !
 ! A175  A(83,81,84)           109.0009         calculate D2E/DX2 analytically  !
 ! A176  A(83,81,85)           111.7779         calculate D2E/DX2 analytically  !
 ! A177  A(84,81,85)           106.3576         calculate D2E/DX2 analytically  !
 ! A178  A(78,85,81)           118.5476         calculate D2E/DX2 analytically  !
 ! A179  A(24,87,88)           123.6485         calculate D2E/DX2 analytically  !
 ! A180  A(24,87,89)           118.7662         calculate D2E/DX2 analytically  !
 ! A181  A(88,87,89)           117.5853         calculate D2E/DX2 analytically  !
 ! A182  A(87,88,90)           121.0747         calculate D2E/DX2 analytically  !
 ! A183  A(87,88,91)           119.3801         calculate D2E/DX2 analytically  !
 ! A184  A(90,88,91)           119.541          calculate D2E/DX2 analytically  !
 ! A185  A(87,89,92)           121.2878         calculate D2E/DX2 analytically  !
 ! A186  A(87,89,93)           118.9706         calculate D2E/DX2 analytically  !
 ! A187  A(92,89,93)           119.737          calculate D2E/DX2 analytically  !
 ! A188  A(88,90,94)           120.4792         calculate D2E/DX2 analytically  !
 ! A189  A(88,90,95)           119.6036         calculate D2E/DX2 analytically  !
 ! A190  A(94,90,95)           119.916          calculate D2E/DX2 analytically  !
 ! A191  A(89,92,94)           120.2074         calculate D2E/DX2 analytically  !
 ! A192  A(89,92,96)           119.673          calculate D2E/DX2 analytically  !
 ! A193  A(94,92,96)           120.1192         calculate D2E/DX2 analytically  !
 ! A194  A(90,94,92)           119.3531         calculate D2E/DX2 analytically  !
 ! A195  A(90,94,97)           120.2771         calculate D2E/DX2 analytically  !
 ! A196  A(92,94,97)           120.3693         calculate D2E/DX2 analytically  !
 ! A197  L(13,19,22,18,-1)     182.4345         calculate D2E/DX2 analytically  !
 ! A198  L(14,43,28,19,-1)     178.2263         calculate D2E/DX2 analytically  !
 ! A199  L(13,19,22,18,-2)     183.0308         calculate D2E/DX2 analytically  !
 ! A200  L(14,43,28,19,-2)     180.8166         calculate D2E/DX2 analytically  !
 ! D1    D(5,1,2,3)              1.8088         calculate D2E/DX2 analytically  !
 ! D2    D(5,1,2,8)           -179.1523         calculate D2E/DX2 analytically  !
 ! D3    D(7,1,2,3)           -178.9104         calculate D2E/DX2 analytically  !
 ! D4    D(7,1,2,8)              0.1285         calculate D2E/DX2 analytically  !
 ! D5    D(2,1,5,14)            -0.5265         calculate D2E/DX2 analytically  !
 ! D6    D(2,1,5,15)          -178.586          calculate D2E/DX2 analytically  !
 ! D7    D(7,1,5,14)          -179.821          calculate D2E/DX2 analytically  !
 ! D8    D(7,1,5,15)             2.1195         calculate D2E/DX2 analytically  !
 ! D9    D(1,2,3,4)             -1.4284         calculate D2E/DX2 analytically  !
 ! D10   D(1,2,3,9)            176.6536         calculate D2E/DX2 analytically  !
 ! D11   D(8,2,3,4)            179.5212         calculate D2E/DX2 analytically  !
 ! D12   D(8,2,3,9)             -2.3968         calculate D2E/DX2 analytically  !
 ! D13   D(2,3,4,13)           177.1276         calculate D2E/DX2 analytically  !
 ! D14   D(2,3,4,14)            -0.2432         calculate D2E/DX2 analytically  !
 ! D15   D(9,3,4,13)            -1.1031         calculate D2E/DX2 analytically  !
 ! D16   D(9,3,4,14)          -178.4739         calculate D2E/DX2 analytically  !
 ! D17   D(2,3,9,6)              2.7076         calculate D2E/DX2 analytically  !
 ! D18   D(2,3,9,11)          -174.5226         calculate D2E/DX2 analytically  !
 ! D19   D(4,3,9,6)           -179.218          calculate D2E/DX2 analytically  !
 ! D20   D(4,3,9,11)             3.5519         calculate D2E/DX2 analytically  !
 ! D21   D(3,4,13,10)           -3.8438         calculate D2E/DX2 analytically  !
 ! D22   D(3,4,13,19)          175.4167         calculate D2E/DX2 analytically  !
 ! D23   D(14,4,13,10)         173.6255         calculate D2E/DX2 analytically  !
 ! D24   D(14,4,13,19)          -7.1141         calculate D2E/DX2 analytically  !
 ! D25   D(3,4,14,5)             1.5339         calculate D2E/DX2 analytically  !
 ! D26   D(3,4,14,43)          174.4943         calculate D2E/DX2 analytically  !
 ! D27   D(13,4,14,5)         -175.9386         calculate D2E/DX2 analytically  !
 ! D28   D(13,4,14,43)          -2.9782         calculate D2E/DX2 analytically  !
 ! D29   D(1,5,14,4)            -1.1592         calculate D2E/DX2 analytically  !
 ! D30   D(1,5,14,43)         -174.4808         calculate D2E/DX2 analytically  !
 ! D31   D(15,5,14,4)          177.1259         calculate D2E/DX2 analytically  !
 ! D32   D(15,5,14,43)           3.8043         calculate D2E/DX2 analytically  !
 ! D33   D(1,5,15,17)         -166.9605         calculate D2E/DX2 analytically  !
 ! D34   D(1,5,15,41)           17.4422         calculate D2E/DX2 analytically  !
 ! D35   D(14,5,15,17)          14.8307         calculate D2E/DX2 analytically  !
 ! D36   D(14,5,15,41)        -160.7667         calculate D2E/DX2 analytically  !
 ! D37   D(3,9,11,10)           -1.1206         calculate D2E/DX2 analytically  !
 ! D38   D(3,9,11,12)          176.3312         calculate D2E/DX2 analytically  !
 ! D39   D(6,9,11,10)         -178.3101         calculate D2E/DX2 analytically  !
 ! D40   D(6,9,11,12)           -0.8583         calculate D2E/DX2 analytically  !
 ! D41   D(13,10,11,9)          -3.9903         calculate D2E/DX2 analytically  !
 ! D42   D(13,10,11,12)        178.505          calculate D2E/DX2 analytically  !
 ! D43   D(16,10,11,9)         169.6816         calculate D2E/DX2 analytically  !
 ! D44   D(16,10,11,12)         -7.8231         calculate D2E/DX2 analytically  !
 ! D45   D(11,10,13,4)           6.4995         calculate D2E/DX2 analytically  !
 ! D46   D(11,10,13,19)       -172.8345         calculate D2E/DX2 analytically  !
 ! D47   D(16,10,13,4)        -168.1547         calculate D2E/DX2 analytically  !
 ! D48   D(16,10,13,19)         12.5113         calculate D2E/DX2 analytically  !
 ! D49   D(11,10,16,18)       -172.3978         calculate D2E/DX2 analytically  !
 ! D50   D(11,10,16,42)          5.2089         calculate D2E/DX2 analytically  !
 ! D51   D(13,10,16,18)          1.8673         calculate D2E/DX2 analytically  !
 ! D52   D(13,10,16,42)        179.474          calculate D2E/DX2 analytically  !
 ! D53   D(4,13,19,18)         164.6348         calculate D2E/DX2 analytically  !
 ! D54   D(4,13,19,20)         -38.6732         calculate D2E/DX2 analytically  !
 ! D55   D(4,13,19,43)          10.3039         calculate D2E/DX2 analytically  !
 ! D56   D(10,13,19,18)        -16.0734         calculate D2E/DX2 analytically  !
 ! D57   D(10,13,19,20)        140.6186         calculate D2E/DX2 analytically  !
 ! D58   D(10,13,19,43)       -170.4043         calculate D2E/DX2 analytically  !
 ! D59   D(4,13,22,23)         161.0836         calculate D2E/DX2 analytically  !
 ! D60   D(4,13,22,24)         -77.5206         calculate D2E/DX2 analytically  !
 ! D61   D(4,13,22,26)          42.5147         calculate D2E/DX2 analytically  !
 ! D62   D(10,13,22,23)        -18.2998         calculate D2E/DX2 analytically  !
 ! D63   D(10,13,22,24)        103.096          calculate D2E/DX2 analytically  !
 ! D64   D(10,13,22,26)       -136.8687         calculate D2E/DX2 analytically  !
 ! D65   D(4,14,43,19)           7.9681         calculate D2E/DX2 analytically  !
 ! D66   D(4,14,43,20)          58.4415         calculate D2E/DX2 analytically  !
 ! D67   D(4,14,43,44)         -98.91           calculate D2E/DX2 analytically  !
 ! D68   D(5,14,43,19)        -178.8171         calculate D2E/DX2 analytically  !
 ! D69   D(5,14,43,20)        -128.3437         calculate D2E/DX2 analytically  !
 ! D70   D(5,14,43,44)          74.3048         calculate D2E/DX2 analytically  !
 ! D71   D(5,15,17,37)        -171.8152         calculate D2E/DX2 analytically  !
 ! D72   D(41,15,17,37)          3.8198         calculate D2E/DX2 analytically  !
 ! D73   D(5,15,41,34)         172.3716         calculate D2E/DX2 analytically  !
 ! D74   D(17,15,41,34)         -3.4044         calculate D2E/DX2 analytically  !
 ! D75   D(10,16,18,19)        -14.2732         calculate D2E/DX2 analytically  !
 ! D76   D(10,16,18,39)        168.7992         calculate D2E/DX2 analytically  !
 ! D77   D(42,16,18,19)        167.9669         calculate D2E/DX2 analytically  !
 ! D78   D(42,16,18,39)         -8.9606         calculate D2E/DX2 analytically  !
 ! D79   D(10,16,42,31)        174.6989         calculate D2E/DX2 analytically  !
 ! D80   D(18,16,42,31)         -7.6303         calculate D2E/DX2 analytically  !
 ! D81   D(15,17,37,34)         -2.4093         calculate D2E/DX2 analytically  !
 ! D82   D(15,17,37,38)        113.3134         calculate D2E/DX2 analytically  !
 ! D83   D(15,17,37,45)       -128.2378         calculate D2E/DX2 analytically  !
 ! D84   D(16,18,19,13)         16.0286         calculate D2E/DX2 analytically  !
 ! D85   D(16,18,19,20)        -57.9369         calculate D2E/DX2 analytically  !
 ! D86   D(16,18,19,22)       -167.0021         calculate D2E/DX2 analytically  !
 ! D87   D(16,18,19,43)         82.9702         calculate D2E/DX2 analytically  !
 ! D88   D(39,18,19,13)       -168.9662         calculate D2E/DX2 analytically  !
 ! D89   D(39,18,19,20)        117.0682         calculate D2E/DX2 analytically  !
 ! D90   D(39,18,19,22)          8.003          calculate D2E/DX2 analytically  !
 ! D91   D(39,18,19,43)       -102.0246         calculate D2E/DX2 analytically  !
 ! D92   D(16,18,39,31)         20.133          calculate D2E/DX2 analytically  !
 ! D93   D(16,18,39,40)        136.7661         calculate D2E/DX2 analytically  !
 ! D94   D(16,18,39,58)       -102.9109         calculate D2E/DX2 analytically  !
 ! D95   D(19,18,39,31)       -154.9547         calculate D2E/DX2 analytically  !
 ! D96   D(19,18,39,40)        -38.3215         calculate D2E/DX2 analytically  !
 ! D97   D(19,18,39,58)         82.0015         calculate D2E/DX2 analytically  !
 ! D98   D(13,19,20,21)        -67.4116         calculate D2E/DX2 analytically  !
 ! D99   D(18,19,20,21)          4.7192         calculate D2E/DX2 analytically  !
 ! D100  D(22,19,20,21)        116.2962         calculate D2E/DX2 analytically  !
 ! D101  D(18,19,22,23)         -1.9472         calculate D2E/DX2 analytically  !
 ! D102  D(18,19,22,24)        119.1604         calculate D2E/DX2 analytically  !
 ! D103  D(18,19,22,26)       -120.865          calculate D2E/DX2 analytically  !
 ! D104  D(20,19,22,23)       -159.0373         calculate D2E/DX2 analytically  !
 ! D105  D(20,19,22,24)        -37.9297         calculate D2E/DX2 analytically  !
 ! D106  D(20,19,22,26)         82.0448         calculate D2E/DX2 analytically  !
 ! D107  D(43,19,22,23)        151.85           calculate D2E/DX2 analytically  !
 ! D108  D(43,19,22,24)        -87.0424         calculate D2E/DX2 analytically  !
 ! D109  D(43,19,22,26)         32.9321         calculate D2E/DX2 analytically  !
 ! D110  D(13,19,43,14)         -7.7172         calculate D2E/DX2 analytically  !
 ! D111  D(13,19,43,28)        171.4661         calculate D2E/DX2 analytically  !
 ! D112  D(13,19,43,44)         82.0972         calculate D2E/DX2 analytically  !
 ! D113  D(18,19,43,14)        -73.5912         calculate D2E/DX2 analytically  !
 ! D114  D(18,19,43,28)        105.5922         calculate D2E/DX2 analytically  !
 ! D115  D(18,19,43,44)         16.2232         calculate D2E/DX2 analytically  !
 ! D116  D(22,19,43,14)        173.9089         calculate D2E/DX2 analytically  !
 ! D117  D(22,19,43,28)         -6.9077         calculate D2E/DX2 analytically  !
 ! D118  D(22,19,43,44)        -96.2766         calculate D2E/DX2 analytically  !
 ! D119  D(19,20,21,30)        -43.6734         calculate D2E/DX2 analytically  !
 ! D120  D(19,20,21,71)        137.2457         calculate D2E/DX2 analytically  !
 ! D121  D(43,20,21,30)       -172.6551         calculate D2E/DX2 analytically  !
 ! D122  D(43,20,21,71)          8.264          calculate D2E/DX2 analytically  !
 ! D123  D(21,20,43,14)         49.7125         calculate D2E/DX2 analytically  !
 ! D124  D(21,20,43,28)       -132.1797         calculate D2E/DX2 analytically  !
 ! D125  D(21,20,43,44)        130.6115         calculate D2E/DX2 analytically  !
 ! D126  D(20,21,71,72)       -171.4199         calculate D2E/DX2 analytically  !
 ! D127  D(20,21,71,73)          8.9975         calculate D2E/DX2 analytically  !
 ! D128  D(30,21,71,72)          9.4847         calculate D2E/DX2 analytically  !
 ! D129  D(30,21,71,73)       -170.0979         calculate D2E/DX2 analytically  !
 ! D130  D(19,22,24,25)        111.0674         calculate D2E/DX2 analytically  !
 ! D131  D(19,22,24,87)        -95.0973         calculate D2E/DX2 analytically  !
 ! D132  D(23,22,24,25)       -145.9763         calculate D2E/DX2 analytically  !
 ! D133  D(23,22,24,87)          7.859          calculate D2E/DX2 analytically  !
 ! D134  D(26,22,24,25)         23.7963         calculate D2E/DX2 analytically  !
 ! D135  D(26,22,24,87)        177.6316         calculate D2E/DX2 analytically  !
 ! D136  D(19,22,26,27)         88.8191         calculate D2E/DX2 analytically  !
 ! D137  D(19,22,26,28)        -91.8039         calculate D2E/DX2 analytically  !
 ! D138  D(23,22,26,27)        -14.2763         calculate D2E/DX2 analytically  !
 ! D139  D(23,22,26,28)        165.1008         calculate D2E/DX2 analytically  !
 ! D140  D(24,22,26,27)        175.7198         calculate D2E/DX2 analytically  !
 ! D141  D(24,22,26,28)         -4.9032         calculate D2E/DX2 analytically  !
 ! D142  D(22,24,87,88)         18.152          calculate D2E/DX2 analytically  !
 ! D143  D(22,24,87,89)       -161.8292         calculate D2E/DX2 analytically  !
 ! D144  D(25,24,87,88)        172.6227         calculate D2E/DX2 analytically  !
 ! D145  D(25,24,87,89)         -7.3586         calculate D2E/DX2 analytically  !
 ! D146  D(22,26,28,29)        -21.7282         calculate D2E/DX2 analytically  !
 ! D147  D(22,26,28,43)         85.5172         calculate D2E/DX2 analytically  !
 ! D148  D(22,26,28,86)       -169.9194         calculate D2E/DX2 analytically  !
 ! D149  D(27,26,28,29)        157.6474         calculate D2E/DX2 analytically  !
 ! D150  D(27,26,28,43)        -95.1072         calculate D2E/DX2 analytically  !
 ! D151  D(27,26,28,86)          9.4562         calculate D2E/DX2 analytically  !
 ! D152  D(26,28,43,19)        -22.2017         calculate D2E/DX2 analytically  !
 ! D153  D(26,28,43,20)        -72.5604         calculate D2E/DX2 analytically  !
 ! D154  D(26,28,43,44)         84.6763         calculate D2E/DX2 analytically  !
 ! D155  D(29,28,43,19)         98.539          calculate D2E/DX2 analytically  !
 ! D156  D(29,28,43,20)         48.1803         calculate D2E/DX2 analytically  !
 ! D157  D(29,28,43,44)       -154.583          calculate D2E/DX2 analytically  !
 ! D158  D(86,28,43,19)       -140.537          calculate D2E/DX2 analytically  !
 ! D159  D(86,28,43,20)        169.1044         calculate D2E/DX2 analytically  !
 ! D160  D(86,28,43,44)        -33.6589         calculate D2E/DX2 analytically  !
 ! D161  D(32,31,39,18)         92.3535         calculate D2E/DX2 analytically  !
 ! D162  D(32,31,39,40)        -24.0669         calculate D2E/DX2 analytically  !
 ! D163  D(32,31,39,58)       -144.9076         calculate D2E/DX2 analytically  !
 ! D164  D(33,31,39,18)       -141.9404         calculate D2E/DX2 analytically  !
 ! D165  D(33,31,39,40)        101.6393         calculate D2E/DX2 analytically  !
 ! D166  D(33,31,39,58)        -19.2015         calculate D2E/DX2 analytically  !
 ! D167  D(42,31,39,18)        -24.1571         calculate D2E/DX2 analytically  !
 ! D168  D(42,31,39,40)       -140.5774         calculate D2E/DX2 analytically  !
 ! D169  D(42,31,39,58)         98.5818         calculate D2E/DX2 analytically  !
 ! D170  D(32,31,42,16)        -99.817          calculate D2E/DX2 analytically  !
 ! D171  D(33,31,42,16)        142.3628         calculate D2E/DX2 analytically  !
 ! D172  D(39,31,42,16)         19.8838         calculate D2E/DX2 analytically  !
 ! D173  D(35,34,37,17)        117.7698         calculate D2E/DX2 analytically  !
 ! D174  D(35,34,37,38)          4.3584         calculate D2E/DX2 analytically  !
 ! D175  D(35,34,37,45)       -115.9773         calculate D2E/DX2 analytically  !
 ! D176  D(36,34,37,17)       -116.939          calculate D2E/DX2 analytically  !
 ! D177  D(36,34,37,38)        129.6496         calculate D2E/DX2 analytically  !
 ! D178  D(36,34,37,45)          9.3139         calculate D2E/DX2 analytically  !
 ! D179  D(41,34,37,17)          0.5592         calculate D2E/DX2 analytically  !
 ! D180  D(41,34,37,38)       -112.8521         calculate D2E/DX2 analytically  !
 ! D181  D(41,34,37,45)        126.8121         calculate D2E/DX2 analytically  !
 ! D182  D(35,34,41,15)       -119.6792         calculate D2E/DX2 analytically  !
 ! D183  D(36,34,41,15)        123.0236         calculate D2E/DX2 analytically  !
 ! D184  D(37,34,41,15)          1.4046         calculate D2E/DX2 analytically  !
 ! D185  D(17,37,45,46)         61.9893         calculate D2E/DX2 analytically  !
 ! D186  D(17,37,45,50)       -177.1422         calculate D2E/DX2 analytically  !
 ! D187  D(17,37,45,54)        -58.8443         calculate D2E/DX2 analytically  !
 ! D188  D(34,37,45,46)        -57.8036         calculate D2E/DX2 analytically  !
 ! D189  D(34,37,45,50)         63.0649         calculate D2E/DX2 analytically  !
 ! D190  D(34,37,45,54)       -178.6372         calculate D2E/DX2 analytically  !
 ! D191  D(38,37,45,46)       -179.7345         calculate D2E/DX2 analytically  !
 ! D192  D(38,37,45,50)        -58.866          calculate D2E/DX2 analytically  !
 ! D193  D(38,37,45,54)         59.4319         calculate D2E/DX2 analytically  !
 ! D194  D(18,39,58,59)         61.8631         calculate D2E/DX2 analytically  !
 ! D195  D(18,39,58,63)        -58.6749         calculate D2E/DX2 analytically  !
 ! D196  D(18,39,58,67)       -177.1503         calculate D2E/DX2 analytically  !
 ! D197  D(31,39,58,59)        -53.7186         calculate D2E/DX2 analytically  !
 ! D198  D(31,39,58,63)       -174.2566         calculate D2E/DX2 analytically  !
 ! D199  D(31,39,58,67)         67.2679         calculate D2E/DX2 analytically  !
 ! D200  D(40,39,58,59)       -176.2549         calculate D2E/DX2 analytically  !
 ! D201  D(40,39,58,63)         63.2071         calculate D2E/DX2 analytically  !
 ! D202  D(40,39,58,67)        -55.2684         calculate D2E/DX2 analytically  !
 ! D203  D(37,45,46,47)        -60.5385         calculate D2E/DX2 analytically  !
 ! D204  D(37,45,46,48)         61.0452         calculate D2E/DX2 analytically  !
 ! D205  D(37,45,46,49)       -179.6701         calculate D2E/DX2 analytically  !
 ! D206  D(50,45,46,47)        179.8192         calculate D2E/DX2 analytically  !
 ! D207  D(50,45,46,48)        -58.5971         calculate D2E/DX2 analytically  !
 ! D208  D(50,45,46,49)         60.6876         calculate D2E/DX2 analytically  !
 ! D209  D(54,45,46,47)         60.4196         calculate D2E/DX2 analytically  !
 ! D210  D(54,45,46,48)       -177.9968         calculate D2E/DX2 analytically  !
 ! D211  D(54,45,46,49)        -58.7121         calculate D2E/DX2 analytically  !
 ! D212  D(37,45,50,51)         57.7806         calculate D2E/DX2 analytically  !
 ! D213  D(37,45,50,52)        177.3276         calculate D2E/DX2 analytically  !
 ! D214  D(37,45,50,53)        -63.2101         calculate D2E/DX2 analytically  !
 ! D215  D(46,45,50,51)        179.8934         calculate D2E/DX2 analytically  !
 ! D216  D(46,45,50,52)        -60.5596         calculate D2E/DX2 analytically  !
 ! D217  D(46,45,50,53)         58.9027         calculate D2E/DX2 analytically  !
 ! D218  D(54,45,50,51)        -60.6815         calculate D2E/DX2 analytically  !
 ! D219  D(54,45,50,52)         58.8655         calculate D2E/DX2 analytically  !
 ! D220  D(54,45,50,53)        178.3278         calculate D2E/DX2 analytically  !
 ! D221  D(37,45,54,55)         63.5989         calculate D2E/DX2 analytically  !
 ! D222  D(37,45,54,56)       -176.5492         calculate D2E/DX2 analytically  !
 ! D223  D(37,45,54,57)        -56.8824         calculate D2E/DX2 analytically  !
 ! D224  D(46,45,54,55)        -58.941          calculate D2E/DX2 analytically  !
 ! D225  D(46,45,54,56)         60.9109         calculate D2E/DX2 analytically  !
 ! D226  D(46,45,54,57)       -179.4224         calculate D2E/DX2 analytically  !
 ! D227  D(50,45,54,55)       -178.8769         calculate D2E/DX2 analytically  !
 ! D228  D(50,45,54,56)        -59.025          calculate D2E/DX2 analytically  !
 ! D229  D(50,45,54,57)         60.6418         calculate D2E/DX2 analytically  !
 ! D230  D(39,58,59,60)        -60.9609         calculate D2E/DX2 analytically  !
 ! D231  D(39,58,59,61)         60.8905         calculate D2E/DX2 analytically  !
 ! D232  D(39,58,59,62)       -179.6743         calculate D2E/DX2 analytically  !
 ! D233  D(63,58,59,60)         60.074          calculate D2E/DX2 analytically  !
 ! D234  D(63,58,59,61)       -178.0745         calculate D2E/DX2 analytically  !
 ! D235  D(63,58,59,62)        -58.6393         calculate D2E/DX2 analytically  !
 ! D236  D(67,58,59,60)        179.288          calculate D2E/DX2 analytically  !
 ! D237  D(67,58,59,61)        -58.8605         calculate D2E/DX2 analytically  !
 ! D238  D(67,58,59,62)         60.5747         calculate D2E/DX2 analytically  !
 ! D239  D(39,58,63,64)        -58.441          calculate D2E/DX2 analytically  !
 ! D240  D(39,58,63,65)         63.0038         calculate D2E/DX2 analytically  !
 ! D241  D(39,58,63,66)       -177.6902         calculate D2E/DX2 analytically  !
 ! D242  D(59,58,63,64)        179.4338         calculate D2E/DX2 analytically  !
 ! D243  D(59,58,63,65)        -59.1214         calculate D2E/DX2 analytically  !
 ! D244  D(59,58,63,66)         60.1846         calculate D2E/DX2 analytically  !
 ! D245  D(67,58,63,64)         59.4739         calculate D2E/DX2 analytically  !
 ! D246  D(67,58,63,65)       -179.0813         calculate D2E/DX2 analytically  !
 ! D247  D(67,58,63,66)        -59.7753         calculate D2E/DX2 analytically  !
 ! D248  D(39,58,67,68)         58.336          calculate D2E/DX2 analytically  !
 ! D249  D(39,58,67,69)        177.629          calculate D2E/DX2 analytically  !
 ! D250  D(39,58,67,70)        -62.9531         calculate D2E/DX2 analytically  !
 ! D251  D(59,58,67,68)       -179.8214         calculate D2E/DX2 analytically  !
 ! D252  D(59,58,67,69)        -60.5284         calculate D2E/DX2 analytically  !
 ! D253  D(59,58,67,70)         58.8894         calculate D2E/DX2 analytically  !
 ! D254  D(63,58,67,68)        -60.6432         calculate D2E/DX2 analytically  !
 ! D255  D(63,58,67,69)         58.6498         calculate D2E/DX2 analytically  !
 ! D256  D(63,58,67,70)        178.0677         calculate D2E/DX2 analytically  !
 ! D257  D(21,71,72,74)        179.1873         calculate D2E/DX2 analytically  !
 ! D258  D(21,71,72,75)         -0.4462         calculate D2E/DX2 analytically  !
 ! D259  D(73,71,72,74)         -1.2006         calculate D2E/DX2 analytically  !
 ! D260  D(73,71,72,75)        179.1659         calculate D2E/DX2 analytically  !
 ! D261  D(21,71,73,76)       -179.4716         calculate D2E/DX2 analytically  !
 ! D262  D(21,71,73,77)          1.8836         calculate D2E/DX2 analytically  !
 ! D263  D(72,71,73,76)          0.9396         calculate D2E/DX2 analytically  !
 ! D264  D(72,71,73,77)       -177.7052         calculate D2E/DX2 analytically  !
 ! D265  D(71,72,74,78)          0.538          calculate D2E/DX2 analytically  !
 ! D266  D(71,72,74,79)       -179.6069         calculate D2E/DX2 analytically  !
 ! D267  D(75,72,74,78)       -179.8277         calculate D2E/DX2 analytically  !
 ! D268  D(75,72,74,79)          0.0274         calculate D2E/DX2 analytically  !
 ! D269  D(71,73,76,78)         -0.0286         calculate D2E/DX2 analytically  !
 ! D270  D(71,73,76,80)       -179.6738         calculate D2E/DX2 analytically  !
 ! D271  D(77,73,76,78)        178.5984         calculate D2E/DX2 analytically  !
 ! D272  D(77,73,76,80)         -1.0467         calculate D2E/DX2 analytically  !
 ! D273  D(72,74,78,76)          0.4159         calculate D2E/DX2 analytically  !
 ! D274  D(72,74,78,85)        179.9194         calculate D2E/DX2 analytically  !
 ! D275  D(79,74,78,76)       -179.4366         calculate D2E/DX2 analytically  !
 ! D276  D(79,74,78,85)          0.0669         calculate D2E/DX2 analytically  !
 ! D277  D(73,76,78,74)         -0.6676         calculate D2E/DX2 analytically  !
 ! D278  D(73,76,78,85)        179.7871         calculate D2E/DX2 analytically  !
 ! D279  D(80,76,78,74)        178.9872         calculate D2E/DX2 analytically  !
 ! D280  D(80,76,78,85)         -0.5581         calculate D2E/DX2 analytically  !
 ! D281  D(74,78,85,81)         -0.0551         calculate D2E/DX2 analytically  !
 ! D282  D(76,78,85,81)        179.4611         calculate D2E/DX2 analytically  !
 ! D283  D(82,81,85,78)        -61.2038         calculate D2E/DX2 analytically  !
 ! D284  D(83,81,85,78)         61.0864         calculate D2E/DX2 analytically  !
 ! D285  D(84,81,85,78)        179.9456         calculate D2E/DX2 analytically  !
 ! D286  D(24,87,88,90)       -178.6157         calculate D2E/DX2 analytically  !
 ! D287  D(24,87,88,91)          2.1216         calculate D2E/DX2 analytically  !
 ! D288  D(89,87,88,90)          1.3657         calculate D2E/DX2 analytically  !
 ! D289  D(89,87,88,91)       -177.8969         calculate D2E/DX2 analytically  !
 ! D290  D(24,87,89,92)        178.9985         calculate D2E/DX2 analytically  !
 ! D291  D(24,87,89,93)         -0.2138         calculate D2E/DX2 analytically  !
 ! D292  D(88,87,89,92)         -0.9839         calculate D2E/DX2 analytically  !
 ! D293  D(88,87,89,93)        179.8038         calculate D2E/DX2 analytically  !
 ! D294  D(87,88,90,94)         -0.9086         calculate D2E/DX2 analytically  !
 ! D295  D(87,88,90,95)        179.4821         calculate D2E/DX2 analytically  !
 ! D296  D(91,88,90,94)        178.3529         calculate D2E/DX2 analytically  !
 ! D297  D(91,88,90,95)         -1.2564         calculate D2E/DX2 analytically  !
 ! D298  D(87,89,92,94)          0.1384         calculate D2E/DX2 analytically  !
 ! D299  D(87,89,92,96)       -179.6421         calculate D2E/DX2 analytically  !
 ! D300  D(93,89,92,94)        179.3448         calculate D2E/DX2 analytically  !
 ! D301  D(93,89,92,96)         -0.4357         calculate D2E/DX2 analytically  !
 ! D302  D(88,90,94,92)          0.0215         calculate D2E/DX2 analytically  !
 ! D303  D(88,90,94,97)       -179.7157         calculate D2E/DX2 analytically  !
 ! D304  D(95,90,94,92)        179.6295         calculate D2E/DX2 analytically  !
 ! D305  D(95,90,94,97)         -0.1077         calculate D2E/DX2 analytically  !
 ! D306  D(89,92,94,90)          0.3593         calculate D2E/DX2 analytically  !
 ! D307  D(89,92,94,97)       -179.9037         calculate D2E/DX2 analytically  !
 ! D308  D(96,92,94,90)       -179.8612         calculate D2E/DX2 analytically  !
 ! D309  D(96,92,94,97)         -0.1242         calculate D2E/DX2 analytically  !
 --------------------------------------------------------------------------------
 Trust Radius=3.00D-01 FncErr=5.00D-06 GrdErr=5.00D-06 EigMax=2.50D+02 EigMin=1.00D-04
 Number of steps in this run=    582 maximum allowed number of steps=    582.
 Search for a saddle point of order  1.
 GradGradGradGradGradGradGradGradGradGradGradGradGradGradGradGradGradGrad

 Stoichiometry    C41H46ClN4Ni2O3(4)
 Framework group  C1[X(C41H46ClN4Ni2O3)]
 Deg. of freedom   285
 Full point group                 C1      NOp   1
 Largest Abelian subgroup         C1      NOp   1
 Largest concise Abelian subgroup C1      NOp   1
                         Standard orientation:                         
 ---------------------------------------------------------------------
 Center     Atomic      Atomic             Coordinates (Angstroms)
 Number     Number       Type             X           Y           Z
 ---------------------------------------------------------------------
      1          6           0        2.424066   -1.144211    3.256703
      2          6           0        1.493516   -0.532308    4.108411
      3          6           0        0.226844   -0.121197    3.611059
      4          6           0       -0.031600   -0.334329    2.202336
      5          6           0        2.096144   -1.307374    1.898680
      6          1           0       -0.652762    0.635482    5.471429
      7          1           0        3.401780   -1.485476    3.624661
      8          1           0        1.728631   -0.378855    5.172907
      9          6           0       -0.824217    0.449674    4.400328
     10          6           0       -2.262302    0.425580    2.452673
     11          6           0       -2.066778    0.709453    3.821894
     12          1           0       -2.908064    1.091290    4.418710
     13          7           0       -1.234357   -0.026597    1.649421
     14          7           0        0.896622   -0.896037    1.396625
     15          6           0        2.941602   -1.949135    0.893234
     16          6           0       -3.501111    0.425878    1.726215
     17          7           0        2.700965   -1.853516   -0.384998
     18          7           0       -3.529754   -0.011247    0.474029
     19         28           0       -1.660500   -0.145463   -0.229056
     20          6           0        0.115561    0.517142   -0.703688
     21          6           0        0.581784    1.774765   -0.463570
     22          6           0       -2.030110   -0.381837   -2.223043
     23          1           0       -3.130180   -0.394600   -2.254697
     24          6           0       -1.301921    0.834630   -2.450773
     25          1           0       -0.334683    0.731040   -2.963645
     26          6           0       -1.328394   -1.639551   -2.168881
     27          1           0       -1.914132   -2.538413   -1.920748
     28          6           0        0.058920   -1.803986   -2.424415
     29          1           0        0.592240   -1.043215   -3.018872
     30          1           0       -0.145482    2.582837   -0.693634
     31          6           0       -5.629232    0.777331    1.157973
     32          1           0       -5.758732    1.817686    0.790821
     33          1           0       -6.593775    0.407700    1.551973
     34          6           0        4.482774   -3.367414    0.087817
     35          1           0        4.373186   -4.463474    0.202984
     36          1           0        5.561260   -3.119073    0.020645
     37          6           0        3.624519   -2.776525   -1.076830
     38          1           0        2.995384   -3.578337   -1.526575
     39          6           0       -4.960612   -0.143187    0.104927
     40          1           0       -5.127797    0.257173   -0.918929
     41          8           0        3.958204   -2.741332    1.295845
     42          8           0       -4.676474    0.809636    2.264367
     43         28           0        0.516665   -1.346668   -0.495759
     44         17           0        0.128757   -3.626351    0.100660
     45          6           0        4.454996   -2.142355   -2.241886
     46          6           0        5.378778   -1.013386   -1.740528
     47          1           0        4.795646   -0.192382   -1.277200
     48          1           0        6.123688   -1.369803   -0.998181
     49          1           0        5.948689   -0.580787   -2.589290
     50          6           0        5.300175   -3.266250   -2.884999
     51          1           0        4.657498   -4.094213   -3.253356
     52          1           0        5.872268   -2.871800   -3.750678
     53          1           0        6.036932   -3.697727   -2.174426
     54          6           0        3.490874   -1.570532   -3.301046
     55          1           0        2.880882   -0.746414   -2.880310
     56          1           0        4.060418   -1.170930   -4.166353
     57          1           0        2.799713   -2.351685   -3.681106
     58          6           0       -5.485829   -1.626898    0.116266
     59          6           0       -5.385286   -2.250653    1.525403
     60          1           0       -4.334204   -2.281525    1.879806
     61          1           0       -5.990632   -1.703534    2.277329
     62          1           0       -5.756052   -3.296552    1.502930
     63          6           0       -4.655700   -2.478252   -0.864384
     64          1           0       -4.703839   -2.075217   -1.898617
     65          1           0       -3.594297   -2.523405   -0.548844
     66          1           0       -5.044458   -3.517282   -0.895267
     67          6           0       -6.958016   -1.615084   -0.354629
     68          1           0       -7.055245   -1.172881   -1.369344
     69          1           0       -7.352443   -2.651370   -0.401053
     70          1           0       -7.619731   -1.044428    0.330452
     71          6           0        1.858521    2.303098    0.023689
     72          6           0        1.950741    3.685086    0.334916
     73          6           0        3.031084    1.519707    0.201501
     74          6           0        3.132691    4.264216    0.822406
     75          1           0        1.063785    4.325345    0.195337
     76          6           0        4.214945    2.082998    0.680611
     77          1           0        2.999306    0.454873   -0.067913
     78          6           0        4.281135    3.460753    1.004570
     79          1           0        3.149495    5.338655    1.054249
     80          1           0        5.121970    1.472381    0.811399
     81          6           0        5.606551    5.292379    1.798607
     82          1           0        5.428968    5.945774    0.915127
     83          1           0        4.905830    5.588070    2.611290
     84          1           0        6.645811    5.435584    2.149329
     85          8           0        5.481156    3.913462    1.468966
     86          1           0        0.436631   -2.833478   -2.516891
     87          6           0       -1.885078    2.174674   -2.578791
     88          6           0       -3.192789    2.510198   -2.134492
     89          6           0       -1.109332    3.204055   -3.179365
     90          6           0       -3.707099    3.801956   -2.309842
     91          1           0       -3.805235    1.746101   -1.634466
     92          6           0       -1.622535    4.500001   -3.347389
     93          1           0       -0.090585    2.969773   -3.529240
     94          6           0       -2.926113    4.806181   -2.917128
     95          1           0       -4.727343    4.033260   -1.963755
     96          1           0       -1.000297    5.275822   -3.821512
     97          1           0       -3.331975    5.821569   -3.049060
 ---------------------------------------------------------------------
 Rotational constants (GHZ):           0.0705850           0.0446264           0.0399156
 General basis read from cards:  (5D, 7F)
 ======================================================================================================
                                       Pseudopotential Parameters
 ======================================================================================================
  Center     Atomic      Valence      Angular      Power
  Number     Number     Electrons     Momentum     of R      Exponent        Coefficient   SO-Coeffient
 ======================================================================================================
    1          6
                                   No pseudopotential on this center.
    2          6
                                   No pseudopotential on this center.
    3          6
                                   No pseudopotential on this center.
    4          6
                                   No pseudopotential on this center.
    5          6
                                   No pseudopotential on this center.
    6          1
                                   No pseudopotential on this center.
    7          1
                                   No pseudopotential on this center.
    8          1
                                   No pseudopotential on this center.
    9          6
                                   No pseudopotential on this center.
   10          6
                                   No pseudopotential on this center.
   11          6
                                   No pseudopotential on this center.
   12          1
                                   No pseudopotential on this center.
   13          7
                                   No pseudopotential on this center.
   14          7
                                   No pseudopotential on this center.
   15          6
                                   No pseudopotential on this center.
   16          6
                                   No pseudopotential on this center.
   17          7
                                   No pseudopotential on this center.
   18          7
                                   No pseudopotential on this center.
   19         28           18
                                      D and up 
                                                     1      469.9324331      -10.00000000    0.00000000
                                                     2       85.4236411      -69.40848050    0.00000000
                                                     2       21.2674984      -12.09510200    0.00000000
                                      S - D
                                                     0      162.1686097        3.00000000    0.00000000
                                                     1      176.5333232       22.02536180    0.00000000
                                                     2       68.9562010      443.01810880    0.00000000
                                                     2       13.5792838      145.56964110    0.00000000
                                      P - D
                                                     0       69.0181506        5.00000000    0.00000000
                                                     1      275.5955596        4.98828240    0.00000000
                                                     2       47.1315453      256.69458530    0.00000000
                                                     2       12.9874075       78.47544500    0.00000000
   20          6
                                   No pseudopotential on this center.
   21          6
                                   No pseudopotential on this center.
   22          6
                                   No pseudopotential on this center.
   23          1
                                   No pseudopotential on this center.
   24          6
                                   No pseudopotential on this center.
   25          1
                                   No pseudopotential on this center.
   26          6
                                   No pseudopotential on this center.
   27          1
                                   No pseudopotential on this center.
   28          6
                                   No pseudopotential on this center.
   29          1
                                   No pseudopotential on this center.
   30          1
                                   No pseudopotential on this center.
   31          6
                                   No pseudopotential on this center.
   32          1
                                   No pseudopotential on this center.
   33          1
                                   No pseudopotential on this center.
   34          6
                                   No pseudopotential on this center.
   35          1
                                   No pseudopotential on this center.
   36          1
                                   No pseudopotential on this center.
   37          6
                                   No pseudopotential on this center.
   38          1
                                   No pseudopotential on this center.
   39          6
                                   No pseudopotential on this center.
   40          1
                                   No pseudopotential on this center.
   41          8
                                   No pseudopotential on this center.
   42          8
                                   No pseudopotential on this center.
   43         28           18
                                      D and up 
                                                     1      469.9324331      -10.00000000    0.00000000
                                                     2       85.4236411      -69.40848050    0.00000000
                                                     2       21.2674984      -12.09510200    0.00000000
                                      S - D
                                                     0      162.1686097        3.00000000    0.00000000
                                                     1      176.5333232       22.02536180    0.00000000
                                                     2       68.9562010      443.01810880    0.00000000
                                                     2       13.5792838      145.56964110    0.00000000
                                      P - D
                                                     0       69.0181506        5.00000000    0.00000000
                                                     1      275.5955596        4.98828240    0.00000000
                                                     2       47.1315453      256.69458530    0.00000000
                                                     2       12.9874075       78.47544500    0.00000000
   44         17
                                   No pseudopotential on this center.
   45          6
                                   No pseudopotential on this center.
   46          6
                                   No pseudopotential on this center.
   47          1
                                   No pseudopotential on this center.
   48          1
                                   No pseudopotential on this center.
   49          1
                                   No pseudopotential on this center.
   50          6
                                   No pseudopotential on this center.
   51          1
                                   No pseudopotential on this center.
   52          1
                                   No pseudopotential on this center.
   53          1
                                   No pseudopotential on this center.
   54          6
                                   No pseudopotential on this center.
   55          1
                                   No pseudopotential on this center.
   56          1
                                   No pseudopotential on this center.
   57          1
                                   No pseudopotential on this center.
   58          6
                                   No pseudopotential on this center.
   59          6
                                   No pseudopotential on this center.
   60          1
                                   No pseudopotential on this center.
   61          1
                                   No pseudopotential on this center.
   62          1
                                   No pseudopotential on this center.
   63          6
                                   No pseudopotential on this center.
   64          1
                                   No pseudopotential on this center.
   65          1
                                   No pseudopotential on this center.
   66          1
                                   No pseudopotential on this center.
   67          6
                                   No pseudopotential on this center.
   68          1
                                   No pseudopotential on this center.
   69          1
                                   No pseudopotential on this center.
   70          1
                                   No pseudopotential on this center.
   71          6
                                   No pseudopotential on this center.
   72          6
                                   No pseudopotential on this center.
   73          6
                                   No pseudopotential on this center.
   74          6
                                   No pseudopotential on this center.
   75          1
                                   No pseudopotential on this center.
   76          6
                                   No pseudopotential on this center.
   77          1
                                   No pseudopotential on this center.
   78          6
                                   No pseudopotential on this center.
   79          1
                                   No pseudopotential on this center.
   80          1
                                   No pseudopotential on this center.
   81          6
                                   No pseudopotential on this center.
   82          1
                                   No pseudopotential on this center.
   83          1
                                   No pseudopotential on this center.
   84          1
                                   No pseudopotential on this center.
   85          8
                                   No pseudopotential on this center.
   86          1
                                   No pseudopotential on this center.
   87          6
                                   No pseudopotential on this center.
   88          6
                                   No pseudopotential on this center.
   89          6
                                   No pseudopotential on this center.
   90          6
                                   No pseudopotential on this center.
   91          1
                                   No pseudopotential on this center.
   92          6
                                   No pseudopotential on this center.
   93          1
                                   No pseudopotential on this center.
   94          6
[...]
 003482,-0.00008057,-0.00011662,-0.00002512,0.00002155,-0.00004160,0.00
 000233,0.00000027,0.00000968,-0.00000598,-0.00001121,0.00000433,-0.000
 00370,-0.00004389,-0.00002257,-0.00002995,0.00000826,-0.00000393,0.000
 00489,0.00000088,0.00000100,-0.00000258,-0.00000340,0.00000009,0.00000
 262,-0.00000203,0.00000820,0.00001081,0.00000010,-0.00000226,-0.000002
 18,0.00000438,-0.00000243,0.00000111,-0.00001008,0.00001033,0.00002554
 ,0.00000109,-0.00000100,-0.00000215,0.00000951,0.00000583,0.00000101,0
 .00001199,0.00000230,0.00000134,0.00004332,-0.00003567,0.00000664,-0.0
 0003618,0.00001329,0.00001995,-0.00001283,-0.00000564,0.00000834,-0.00
 000338,-0.00005120,0.00002145,-0.00000086,-0.00000564,0.00000430,-0.00
 000092,0.00000135,-0.00000210,-0.00000248,-0.00000204,0.00000353,-0.00
 000081,0.00000053,0.00000002,0.00000435,0.00000020,-0.00000313,0.00000
 100,0.00000397,-0.00000202,-0.00000054,-0.00000018,0.00000087,0.000002
 70,-0.00000051,-0.00000278,-0.00000062,-0.00000015,0.00000036,0.000000
 67,0.00000296,-0.00000042,-0.00000389,-0.00000701,0.00000257,0.0000075
 3,-0.00000089,-0.00000530,-0.00000276,0.00000324,0.00000406,0.00000297
 ,0.00000503,0.00000165,-0.00000212,-0.00000332,-0.00000180,-0.00000011
 ,0.00000208,-0.00000113,0.00000002,0.00000147,0.00000094,-0.00000080,-
 0.00000289,0.00000065,-0.00000087,-0.00000485,0.00000159,0.00000564,0.
 00000273,0.00000366,-0.00000047,0.00000707,-0.00000600,-0.00000422,-0.
 00000400,0.00000202,0.00000145,-0.00000350,0.00000278,0.00000081,0.000
 00102,-0.00000048,-0.00000209,-0.00000205,-0.00000052,-0.00000110,0.00
 000136,0.00000087,0.00001157,0.00000173,-0.00000981,0.00000711,-0.0000
 4098,-0.00001412,-0.00001094,0.00001775,-0.00000772,0.00004658,0.00000
 149,0.00000505,-0.00001656,0.00000175,0.00000469,0.00001199,0.00003577
 ,0.00000819,-0.00000818,-0.00000318,0.00000237,-0.00005664,-0.00001636
 ,-0.00001859,0.00000327,0.00000495,0.00000726,0.00000403,-0.00000148,0
 .00000391,-0.00000534,-0.00004362,-0.00000441,-0.00000252,0.00000942,-
 0.00000354,-0.00000309,0.00000622,0.00000154,0.00000230,0.00000335,0.0
 0000141,0.00007973,0.00004781,0.00003238,0.00000487,-0.00000745,-0.000
 00056,0.00406848,-0.00255614,0.00129269,0.00063271,-0.00011494,-0.0005
 3280,-0.01566578,-0.01419902,0.01278396,0.00196280,0.00138840,0.000738
 52,-0.00022161,-0.00008482,-0.00019853,-0.09880612,-0.18908369,0.09372
 539,-0.00057855,0.00075254,-0.00118388,0.00538739,0.00709190,-0.003610
 07,0.00030803,0.00023381,-0.00015403,0.10450102,0.19707597,-0.00000209
 ,-0.00000023,-0.00000018,-0.00000440,0.00000019,-0.00000147,0.00000637
 ,-0.00000259,-0.00000308,-0.00000882,0.00000163,-0.00000071,-0.0000049
 6,0.00000162,0.00000108,-0.00000036,0.00000055,-0.00000156,-0.00000049
 ,0.00000066,-0.00000076,0.00000019,0.00000076,-0.00000138,-0.00001237,
 0.00000099,-0.00000277,-0.00001085,-0.00000278,-0.00001271,0.00001075,
 -0.00000052,0.00001204,0.00000132,0.00000069,-0.00000003,0.00000188,0.
 00000160,-0.00000367,0.00000560,0.00000101,-0.00000251,0.00001102,-0.0
 0000656,0.00000105,0.00001644,0.00002010,0.00005209,-0.00000802,-0.000
 00157,0.00000235,0.00000553,0.00002151,-0.00006371,0.00001303,-0.00005
 382,0.00007877,0.00001114,-0.00007039,-0.00002212,-0.00000967,0.000127
 01,-0.00001668,-0.00007513,0.00006241,-0.00009997,-0.00001529,-0.00000
 867,-0.00000007,0.00023588,0.00009718,0.00012025,-0.00000684,-0.000004
 23,-0.00002662,-0.00002111,0.00004060,-0.00001119,-0.00000200,0.000012
 77,0.00001695,0.00001920,-0.00000175,0.00000529,0.00000591,-0.00000453
 ,-0.00000194,0.00003819,-0.00001303,0.00002913,-0.00000052,0.00000078,
 0.00000639,-0.00000097,0.00000016,0.00000285,0.00000061,0.00000118,-0.
 00000072,0.00000089,-0.00000109,-0.00000223,-0.00000013,0.00000056,0.0
 0000065,-0.00000135,0.00000079,-0.00000010,0.00000171,-0.00000078,-0.0
 0000607,-0.00000079,-0.00000064,0.00000053,-0.00000743,-0.00000961,0.0
 0000845,-0.00000672,-0.00000388,-0.00000459,-0.00001322,0.00000952,-0.
 00000342,0.00000487,-0.00001093,-0.00001404,-0.00001665,0.00001311,-0.
 00002691,0.00000116,0.00000933,-0.00000481,0.00000240,0.00000121,0.000
 00057,-0.00000082,0.00000065,0.00000045,0.00000122,0.00000059,-0.00000
 086,-0.00000037,-0.00000017,-0.00000067,-0.00000084,0.00000008,0.00000
 114,-0.00000093,-0.00000088,-0.00000006,-0.00000011,-0.00000094,-0.000
 00027,-0.00000005,0.00000025,0.00000079,-0.00000024,0.00000046,-0.0000
 0051,-0.00000136,-0.00000008,-0.00000051,0.00000151,0.00000195,0.00000
 066,-0.00000033,0.00000051,0.00000124,0.00000023,-0.00000264,-0.000000
 89,-0.00000328,0.00000011,-0.00000225,0.00000129,0.00000212,0.00000115
 ,-0.00000027,0.00000002,0.00000013,0.00000038,-0.00000069,-0.00000061,
 0.00000038,0.00000121,-0.00000047,0.00000166,0.00000008,0.00000137,-0.
 00000140,-0.00000018,-0.00000236,-0.00000019,-0.00000085,0.00000156,0.
 00000069,0.00000122,-0.00000057,-0.00000012,-0.00000028,0.00000161,-0.
 00000085,-0.00000003,-0.00000156,0.00000012,0.00000115,-0.00000012,0.0
 0000015,-0.00000083,-0.00000047,0.00002676,-0.00001442,0.00001763,-0.0
 0003592,0.00004724,0.00001887,0.00000015,-0.00001363,-0.00000164,-0.00
 002285,-0.00001426,-0.00000129,0.00001846,-0.00000084,-0.00002489,0.00
 000323,-0.00001865,-0.00000194,0.00000618,0.00000046,0.00000011,0.0000
 1556,0.00000533,0.00000354,-0.00000805,-0.00000372,-0.00000920,-0.0000
 0034,-0.00000056,-0.00000068,0.00000030,0.00002499,0.00000056,-0.00000
 089,-0.00000434,0.00000412,0.00000166,-0.00000218,-0.00000265,0.000000
 51,-0.00000213,0.00000031,-0.00002848,-0.00002674,-0.00001339,-0.00000
 134,0.00000134,-0.00000148,0.00177900,0.00144750,0.00575404,-0.0004823
 9,-0.00048621,-0.00049478,0.00247656,0.00077630,0.00201924,0.00384177,
 0.00035875,0.00474751,-0.00038552,-0.00021137,-0.00080309,0.07223499,0
 .09375857,-0.09836436,-0.00167028,-0.00111083,-0.00286940,0.00388491,0
 .00826986,-0.00089189,0.00024794,0.00042865,-0.00004966,-0.08035067,-0
 .10237905,0.09362107,-0.00000413,-0.00000047,0.00000094,0.00000290,-0.
 00000091,-0.00000061,-0.00000340,0.00000113,-0.00000009,-0.00000592,-0
 .00000106,-0.00000381,0.00000483,-0.00000597,0.00000022,0.00000012,-0.
 00000033,-0.00000095,-0.00000020,0.00000035,-0.00000072,0.00000019,0.0
 0000090,-0.00000116,0.00000120,-0.00000216,-0.00000260,0.00000289,0.00
 000156,0.00000144,0.00000195,-0.00000063,-0.00000272,0.00000057,-0.000
 00069,-0.00000084,0.00000112,0.00000646,0.00000070,-0.00000281,0.00000
 688,-0.00000851,0.00000760,-0.00000164,0.00000626,-0.00000822,-0.00000
 921,-0.00002654,-0.00000005,-0.00000208,-0.00000245,-0.00001017,-0.000
 01798,0.00003048,-0.00002705,-0.00000782,0.00002447,-0.00001712,-0.000
 01001,-0.00008383,0.00000995,0.00005429,-0.00000785,0.00001148,-0.0000
 4415,-0.00002556,-0.00000077,0.00001884,0.00002609,0.00008823,-0.00011
 468,-0.00027324,0.00002443,-0.00006883,-0.00003223,-0.00004070,0.00005
 534,0.00001247,-0.00000216,0.00000228,-0.00000707,0.00003681,0.0000032
 3,0.00003028,0.00000063,-0.00000669,-0.00000694,0.00001153,0.00000463,
 0.00003780,0.00000849,-0.00000901,0.00000009,0.00000233,0.00000037,0.0
 0000066,-0.00000045,-0.00000069,0.00000169,0.00000088,-0.00000093,-0.0
 0000154,0.00000006,0.00000056,0.00000024,-0.00000084,0.00000016,0.0000
 0008,0.00000005,-0.00000029,-0.00000297,-0.00000020,-0.00000066,0.0000
 0007,-0.00000063,0.00000195,-0.00001037,0.00002107,0.00000618,0.000004
 66,-0.00000855,0.00000663,-0.00000311,-0.00000325,0.00000850,0.0000038
 4,-0.00002649,-0.00000943,-0.00001441,0.00000471,0.00001720,-0.0000082
 6,0.00000164,-0.00000005,0.00000237,-0.00000002,0.00000018,-0.00000074
 ,0.00000053,0.00000012,0.00000070,-0.00000083,0.00000065,-0.00000074,0
 .00000034,-0.00000025,0.00000044,-0.00000047,-0.00000004,-0.00000136,0
 .00000011,-0.00000022,0.00000006,0.00000010,-0.00000019,0.00000043,-0.
 00000078,0.00000089,-0.00000045,0.00000063,-0.00000128,-0.00000261,0.0
 0000009,0.00000055,0.00000249,0.00000047,-0.00000035,-0.00000011,0.000
 00004,-0.00000053,-0.00000034,0.00000539,0.00000273,0.00000909,-0.0000
 0289,-0.00000510,-0.00000202,-0.00000052,0.00000065,-0.00000028,0.0000
 0050,0.00000021,-0.00000018,-0.00000011,-0.00000110,0.00000159,-0.0000
 0162,-0.00000056,0.00000024,0.00000021,0.00000072,-0.00000032,-0.00000
 075,-0.00000013,0.00000061,0.00000043,-0.00000066,-0.00000018,0.000001
 65,-0.00000188,0.00000126,0.00000029,0.00000012,-0.00000137,-0.0000009
 6,0.00000015,-0.00000017,-0.00000003,-0.00000027,0.00000065,-0.0000017
 0,-0.00000370,0.00000859,-0.00000497,0.00002251,0.00000249,0.00000598,
 -0.00000964,-0.00000094,-0.00001391,0.00000182,-0.00000482,0.00000309,
 0.00000454,0.00000342,-0.00000203,-0.00001341,-0.00000409,0.00000226,-
 0.00000139,0.00000120,0.00002174,0.00000744,0.00001028,-0.00000446,-0.
 00000239,-0.00000340,-0.00000136,-0.00000023,-0.00000050,0.00000108,0.
 00002163,0.00000406,0.00000025,-0.00000315,0.00000227,0.00000188,-0.00
 000240,-0.00000228,-0.00000066,-0.00000156,-0.00000044,-0.00003045,-0.
 00002344,-0.00001492,0.00000310,0.00000264,0.00000160,-0.00079592,-0.0
 0052839,0.00006937,-0.00004823,-0.00159826,0.00356868,-0.00312361,0.00
 050303,0.00438904,0.00889878,-0.01503826,0.00209882,0.00031833,-0.0007
 0703,0.00012439,-0.00558807,0.02490255,-0.00351934,-0.00040417,0.00123
 013,-0.00014145,-0.09205556,0.09890255,-0.00423556,0.00006035,-0.00009
 315,-0.00173660,0.00043168,-0.00075712,-0.00171161,0.09224221,0.000001
 51,-0.00000277,0.00000023,0.00000845,-0.00000204,0.00000416,-0.0000122
 5,0.00000799,0.00000427,0.00000737,0.00000326,0.00000864,0.00000973,-0
 .00000766,-0.00000049,0.00000121,-0.00000091,0.00000290,0.00000184,0.0
 0000043,0.00000077,0.00000031,0.00000044,0.00000266,0.00001752,-0.0000
 0422,0.00000336,0.00002267,0.00000218,0.00001711,-0.00001481,0.0000009
 4,-0.00001755,-0.00000167,-0.00000012,0.00000057,-0.00001035,0.0000015
 4,0.00000541,-0.00000955,0.00000359,-0.00000412,-0.00002929,0.00002560
 ,-0.00001340,-0.00000499,-0.00004441,-0.00013294,0.00002387,-0.0000093
 1,-0.00000291,-0.00003402,-0.00005195,0.00012433,0.00000631,0.00004383
 ,-0.00007119,-0.00001168,0.00004290,-0.00001324,-0.00001922,-0.0000382
 2,0.00001698,0.00002982,-0.00004267,0.00003665,0.00001043,0.00002974,0
 .00003843,-0.00011327,-0.00003116,-0.00028967,0.00004479,-0.00002581,0
 .00001152,-0.00002446,0.00001757,-0.00001000,0.00000154,-0.00001242,-0
 .00000521,0.00003272,0.00000515,0.00002198,-0.00000903,-0.00000068,-0.
 00000478,-0.00000858,-0.00001088,-0.00003110,0.00001778,-0.00001532,-0
 .00000155,0.00000607,0.00000025,-0.00000744,-0.00000466,-0.00000267,0.
 00000605,-0.00000294,0.00000683,0.00000758,0.00000010,-0.00000257,-0.0
 0000124,0.00000308,-0.00000100,0.00000006,-0.00000462,0.00000878,0.000
 01559,0.00000098,-0.00000134,-0.00000205,0.00001255,0.00002378,-0.0000
 3263,0.00004538,0.00001212,0.00001780,0.00003473,-0.00002716,0.0000063
 4,-0.00004398,0.00003352,0.00004135,-0.00002463,-0.00000733,-0.0000124
 6,-0.00000184,-0.00003466,0.00001315,-0.00000200,-0.00000323,0.0000005
 4,-0.00000046,0.00000050,-0.00000079,-0.00000115,-0.00000118,0.0000000
 7,0.00000063,-0.00000096,0.00000112,0.00000077,0.00000091,-0.00000126,
 0.00000106,0.00000265,0.00000007,-0.00000072,-0.00000034,0.00000011,0.
 00000113,-0.00000009,-0.00000174,0.00000090,-0.00000129,0.00000098,0.0
 0000085,0.00000266,0.00000182,-0.00000070,-0.00000353,-0.00000193,0.00
 000205,0.00000072,-0.00000155,-0.00000171,0.00000105,0.00000216,0.0000
 1390,0.00000915,0.00001951,-0.00000771,-0.00001326,-0.00000675,-0.0000
 0041,0.00000310,-0.00000175,0.00000021,0.00000257,0.00000130,-0.000001
 00,-0.00000555,0.00000373,-0.00000467,-0.00000449,-0.00000010,0.000005
 70,0.00000374,0.00000474,-0.00000149,0.00000633,-0.00000439,-0.0000032
 0,-0.00000589,0.00000168,0.00000396,-0.00000629,0.00000200,0.00000224,
 0.00000130,-0.00000070,-0.00000360,-0.00000311,-0.00000055,-0.00000111
 ,0.00000187,0.00000240,-0.00000482,-0.00000534,-0.00000360,-0.00000130
 ,-0.00001441,-0.00000099,-0.00000503,0.00000844,-0.00000296,0.00002112
 ,-0.00000637,0.00000659,-0.00000218,-0.00000511,-0.00000562,0.00000581
 ,0.00001888,0.00000611,-0.00000392,-0.00000061,0.00000006,-0.00004100,
 -0.00001239,-0.00001691,0.00000275,0.00000306,0.00000100,0.00000294,-0
 .00000067,0.00000114,-0.00000333,-0.00002953,-0.00000748,-0.00000175,0
 .00000494,-0.00000154,-0.00000283,0.00000417,0.00000214,0.00000220,0.0
 0000204,0.00000118,0.00005303,0.00003305,0.00002405,0.00000430,-0.0000
 0429,0.00000096,-0.00058236,0.00042144,-0.00011425,-0.00246976,-0.0006
 9676,0.00341982,0.00146428,0.00196228,0.00078973,0.01060759,-0.0137622
 4,0.00041736,0.00053010,-0.00072705,-0.00001911,-0.00082466,-0.0015586
 2,0.00193632,-0.00005533,-0.00018492,0.00013614,0.09888798,-0.27798799
 ,0.02980878,-0.00040070,0.00060898,-0.00117157,-0.00045074,0.00031156,
 -0.00106319,-0.10669080,0.29173694,-0.00000123,-0.00000327,0.00000010,
 -0.00000568,0.00000136,-0.00000201,0.00000792,-0.00000254,-0.00000536,
 -0.00001089,0.00000148,-0.00000290,-0.00001060,0.00000005,0.00000389,-
 0.00000085,-0.00000002,-0.00000120,0.00000005,0.00000078,-0.00000067,0
 .00000010,0.00000134,-0.00000091,-0.00001859,0.00000198,-0.00000418,-0
 .00001568,-0.00000319,-0.00001997,0.00001498,0.00000028,0.00001717,0.0
 0000161,0.00000137,-0.00000100,0.00000120,0.00000723,-0.00000188,0.000
 00976,0.00000318,-0.00001205,0.00000868,-0.00000074,-0.00000922,0.0000
 1203,0.00002800,0.00007305,0.00000272,-0.00000678,0.00000571,-0.000001
 38,0.00001235,-0.00007070,0.00001471,-0.00004551,0.00003367,-0.0000263
 6,0.00008660,-0.00011436,-0.00000041,-0.00000935,0.00003325,0.00007041
 ,-0.00007120,0.00004095,-0.00003563,-0.00003329,0.00003166,-0.00025626
 ,-0.00036545,-0.00051798,-0.00000006,0.00004581,-0.00001916,-0.0001036
 8,0.00003698,0.00000395,0.00000033,-0.00000752,-0.00001172,0.00005286,
 0.00002481,0.00003840,-0.00000646,-0.00000402,-0.00000782,0.00002896,0
 .00000592,-0.00001633,-0.00000751,0.00001910,0.00000346,0.00000091,-0.
 00000373,0.00000468,0.00000187,-0.00000096,-0.00000108,0.00000014,-0.0
 0000034,-0.00000087,0.00000012,0.00000009,0.00000050,-0.00000047,0.000
 00036,0.00000015,0.00000145,0.00000131,-0.00000097,-0.00000041,-0.0000
 0030,-0.00000012,0.00000147,-0.00000651,0.00001685,-0.00002625,-0.0000
 0611,-0.00000540,-0.00000521,0.00000354,-0.00000055,0.00001508,-0.0000
 2100,-0.00002661,-0.00003459,-0.00002720,-0.00002127,0.00000459,0.0000
 1258,-0.00000528,0.00000074,-0.00000007,-0.00000028,-0.00000033,0.0000
 0017,0.00000031,0.00000031,0.00000002,-0.00000024,-0.00000015,0.,-0.00
 000016,-0.00000018,0.00000004,0.00000018,-0.00000009,-0.00000015,0.000
 00032,-0.00000014,-0.00000044,-0.00000008,0.00000011,0.00000012,0.0000
 0013,0.,0.00000003,-0.00000023,-0.00000075,0.00000067,0.00000073,0.000
 00038,0.00000029,-0.00000030,0.00000011,0.00000024,0.00000025,-0.00000
 008,-0.00000089,-0.00000019,-0.00000563,-0.00000171,-0.00001124,0.0000
 0264,0.00000525,0.00000311,-0.00000030,0.00000003,-0.00000010,0.000000
 86,-0.00000068,-0.00000130,0.00000007,0.00000152,-0.00000180,0.0000016
 1,-0.00000177,0.00000455,-0.00000122,-0.00000085,-0.00000315,0.0000002
 1,-0.00000048,0.00000017,0.00000034,0.00000131,-0.00000122,-0.00000148
 ,-0.00000029,0.00000254,-0.00000143,0.00000062,-0.00000117,0.00000055,
 0.00000058,-0.00000035,0.00000099,-0.00000039,-0.00000163,-0.00001730,
 -0.00001410,-0.00000082,-0.00000817,0.00002504,0.00000129,0.00000810,-
 0.00000642,-0.00000011,-0.00000876,-0.00000245,-0.00000472,0.00000217,
 -0.00000163,0.00000149,-0.00000072,-0.00001120,-0.00000293,0.00000173,
 0.00000054,0.00000003,0.00000647,0.00000385,0.00000415,-0.00000377,-0.
 00000148,-0.00000090,0.,-0.00000030,-0.00000005,-0.00000055,0.00001017
 ,0.00000342,-0.00000031,-0.00000127,0.00000112,0.00000118,-0.00000111,
 -0.00000204,0.00000020,-0.00000083,-0.00000003,-0.00001179,-0.00001128
 ,-0.00000727,0.00000067,0.00000227,0.00000705,0.00011724,-0.00007165,-
 0.00098389,0.00380244,0.00293887,0.00375921,0.00407829,0.00116253,0.00
 448477,-0.00576812,0.01243560,0.00226596,-0.00023453,0.00063561,0.0000
 5397,0.00439886,-0.00990470,0.00456838,0.00024563,-0.00046307,0.000170
 00,-0.00425240,0.02976283,-0.04213238,-0.00164180,-0.00130990,-0.00251
 912,-0.00182421,-0.00093773,-0.00265700,0.00142856,-0.03391883,0.03357
 570\\-0.00000041,-0.00000004,0.00000045,-0.00000007,-0.00000028,0.,-0.
 00000036,0.00000040,0.,0.00000007,-0.00000005,-0.00000002,-0.00000017,
 -0.00000117,-0.00000044,0.00000003,0.00000063,-0.00000005,-0.00000047,
 -0.00000067,0.00000019,-0.00000024,-0.00000008,0.00000008,0.00000005,0
 .00000056,-0.00000015,-0.00000044,0.00000057,0.,0.00000007,0.00000088,
 -0.00000010,0.00000016,0.00000119,-0.00000014,-0.00000023,0.00000043,-
 0.00000053,-0.00000060,0.00000012,0.00000015,-0.00000144,-0.00000015,-
 0.00000037,0.00000010,0.00000092,-0.00000021,-0.00000032,-0.00000001,0
 .00000213,0.00000057,0.00000151,0.00000040,-0.00000121,0.00000058,0.00
 000028,0.00000037,-0.00000052,-0.00000250,-0.00000084,0.00000020,0.000
 00051,-0.00000018,0.00000058,0.00000046,-0.00000004,0.00000114,-0.0000
 0031,0.00000062,0.00000029,0.00000055,0.00000047,-0.00000003,0.0000002
 3,0.00000101,0.00000017,0.00000078,-0.00000066,0.00000032,0.00000011,-
 0.00000200,-0.00000074,-0.00000054,0.00000035,-0.00000052,-0.00000010,
 0.00000052,0.00000015,0.00000031,0.00000028,0.00000177,-0.00000001,0.0
 0000032,0.00000170,-0.00000023,0.00000010,0.00000197,-0.00000018,-0.00
 000118,0.00000095,-0.00000167,-0.00000169,-0.00000087,0.00000010,-0.00
 000033,-0.00000038,0.00000056,0.00000010,-0.00000378,-0.00000062,-0.00
 000080,-0.00000115,0.00000069,-0.00000013,0.00000125,-0.00000005,0.000
 00008,0.00000139,-0.00000010,-0.00000100,-0.00000215,0.00000156,0.0000
 0023,0.00000123,-0.00000026,0.,0.00000067,0.00000094,-0.00000126,-0.00
 000028,0.00000032,-0.00000038,-0.00000148,0.00000124,0.00000004,-0.000
 00153,0.00000016,0.00000006,-0.00000126,0.00000073,-0.00000136,-0.0000
 0145,-0.00000038,-0.00000047,-0.00000162,-0.00000012,-0.00000065,-0.00
 000195,0.00000059,-0.00000109,-0.00000143,0.00000055,-0.00000080,-0.00
 000184,0.00000030,-0.00000051,-0.00000269,0.00000067,-0.00000031,-0.00
 000101,0.00000035,-0.00000032,-0.00000125,-0.00000015,-0.00000023,-0.0
 0000131,0.00000020,-0.00000086,-0.00000111,-0.00000002,-0.00000051,0.0
 0000172,-0.00000010,-0.00000068,0.00000148,0.00000009,-0.00000077,0.00
 000138,0.00000011,-0.00000057,0.00000184,0.,-0.00000097,0.00000174,0.0
 0000014,-0.00000068,0.00000127,0.00000010,-0.00000052,0.00000125,0.000
 00006,-0.00000057,0.00000113,0.00000021,-0.00000095,0.00000137,0.00000
 014,-0.00000053,0.00000196,-0.00000010,-0.00000029,0.00000187,-0.00000
 007,-0.00000076,0.00000204,0.00000005,-0.00000037,0.00000217,-0.000000
 07,0.00000076,-0.00000059,-0.00000100,0.00000110,-0.00000043,-0.000000
 36,0.00000041,-0.00000102,-0.00000007,0.00000100,-0.00000079,-0.000000
 19,0.00000117,-0.00000027,-0.00000030,0.00000045,-0.00000121,-0.000000
 09,0.00000052,-0.00000090,0.00000048,0.00000085,-0.00000114,-0.0000002
 2,0.00000142,-0.00000074,-0.00000031,0.00000036,-0.00000130,-0.0000000
 8,0.00000139,-0.00000135,-0.00000027,0.00000160,-0.00000144,-0.0000003
 6,0.00000144,-0.00000114,-0.00000030,0.00000142,-0.00000165,-0.0000002
 5,0.00000113,-0.00000137,-0.00000016,-0.00000084,-0.00000013,0.0000002
 0,0.00000070,0.00000068,-0.00000022,0.00000072,0.00000024,-0.00000036,
 0.00000085,-0.00000005,-0.00000022,0.00000102,0.00000084,-0.00000039,0
 .00000052,0.00000111,-0.00000012,0.00000117,0.00000030,-0.00000040,0.0
 0000089,-0.00000020,-0.00000015,0.00000138,0.00000062,-0.00000041,0.00
 000108,0.00000118,-0.00000038,0.00000148,0.00000004,-0.00000042,0.0000
 0161,0.00000071,-0.00000051\\\@


 The most important thing in communication is to hear what isn't being said.
 -- Peter F. Drucker
 Job cpu time:       1 days 20 hours  9 minutes 50.0 seconds.
 Elapsed time:       0 days  3 hours 41 minutes 24.3 seconds.
 File lengths (MBytes):  RWF=  18866 Int=      0 D2E=      0 Chk=    143 Scr=      1
 Normal termination of Gaussian 16 at Thu Jun  2 23:10:08 2022.
