 Entering Gaussian System, Link 0=g16
 Input=Pro_R_E_tsd2_4_m06l.com
 Output=Pro_R_E_tsd2_4_m06l.log
 Initial command:
 /apps/gaussian16/B.01/AVX2/g16/l1.exe "/tmp/51822073/Gau-26921.inp" -scrdir="/tmp/51822073/"
 Entering Link 1 = /apps/gaussian16/B.01/AVX2/g16/l1.exe PID=     26922.
  
 Copyright (c) 1988-2017, Gaussian, Inc.  All Rights Reserved.
  
 This is part of the Gaussian(R) 16 program.  It is based on
 the Gaussian(R) 09 system (copyright 2009, Gaussian, Inc.),
 the Gaussian(R) 03 system (copyright 2003, Gaussian, Inc.),
 the Gaussian(R) 98 system (copyright 1998, Gaussian, Inc.),
 the Gaussian(R) 94 system (copyright 1995, Gaussian, Inc.),
 the Gaussian 92(TM) system (copyright 1992, Gaussian, Inc.),
 the Gaussian 90(TM) system (copyright 1990, Gaussian, Inc.),
 the Gaussian 88(TM) system (copyright 1988, Gaussian, Inc.),
 the Gaussian 86(TM) system (copyright 1986, Carnegie Mellon
 University), and the Gaussian 82(TM) system (copyright 1983,
 Carnegie Mellon University). Gaussian is a federally registered
 trademark of Gaussian, Inc.
  
 This software contains proprietary and confidential information,
 including trade secrets, belonging to Gaussian, Inc.
  
 This software is provided under written license and may be
 used, copied, transmitted, or stored only in accord with that
 written license.
  
 The following legend is applicable only to US Government
 contracts under FAR:
  
                    RESTRICTED RIGHTS LEGEND
  
 Use, reproduction and disclosure by the US Government is
 subject to restrictions as set forth in subparagraphs (a)
 and (c) of the Commercial Computer Software - Restricted
 Rights clause in FAR 52.227-19.
  
 Gaussian, Inc.
 340 Quinnipiac St., Bldg. 40, Wallingford CT 06492
  
  
 ---------------------------------------------------------------
 Warning -- This program may not be used in any manner that
 competes with the business of Gaussian, Inc. or will provide
 assistance to any competitor of Gaussian, Inc.  The licensee
 of this program is prohibited from giving any competitor of
 Gaussian, Inc. access to this program.  By using this program,
 the user acknowledges that Gaussian, Inc. is engaged in the
 business of creating and licensing software in the field of
 computational chemistry and represents and warrants to the
 licensee that it is not a competitor of Gaussian, Inc. and that
 it will not use this program in any manner prohibited above.
 ---------------------------------------------------------------
  

 Cite this work as:
 Gaussian 16, Revision B.01,
 M. J. Frisch, G. W. Trucks, H. B. Schlegel, G. E. Scuseria, 
 M. A. Robb, J. R. Cheeseman, G. Scalmani, V. Barone, 
 G. A. Petersson, H. Nakatsuji, X. Li, M. Caricato, A. V. Marenich, 
 J. Bloino, B. G. Janesko, R. Gomperts, B. Mennucci, H. P. Hratchian, 
 J. V. Ortiz, A. F. Izmaylov, J. L. Sonnenberg, D. Williams-Young, 
 F. Ding, F. Lipparini, F. Egidi, J. Goings, B. Peng, A. Petrone, 
 T. Henderson, D. Ranasinghe, V. G. Zakrzewski, J. Gao, N. Rega, 
 G. Zheng, W. Liang, M. Hada, M. Ehara, K. Toyota, R. Fukuda, 
 J. Hasegawa, M. Ishida, T. Nakajima, Y. Honda, O. Kitao, H. Nakai, 
 T. Vreven, K. Throssell, J. A. Montgomery, Jr., J. E. Peralta, 
 F. Ogliaro, M. J. Bearpark, J. J. Heyd, E. N. Brothers, K. N. Kudin, 
 V. N. Staroverov, T. A. Keith, R. Kobayashi, J. Normand, 
 K. Raghavachari, A. P. Rendell, J. C. Burant, S. S. Iyengar, 
 J. Tomasi, M. Cossi, J. M. Millam, M. Klene, C. Adamo, R. Cammi, 
 J. W. Ochterski, R. L. Martin, K. Morokuma, O. Farkas, 
 J. B. Foresman, and D. J. Fox, Gaussian, Inc., Wallingford CT, 2016.
 
 ******************************************
 Gaussian 16:  ES64L-G16RevB.01 20-Dec-2017
                24-Aug-2022 
 ******************************************
 %nprocshared=12
 Will use up to   12 processors via shared memory.
 %mem=24GB
 --------------------------------------------------------------------
 #m06l/gen pseudo=read integral=ultrafine temperature=308 scrf=(read)
 --------------------------------------------------------------------
 1/38=1,40=2,112=308000,172=1/1;
 2/12=2,17=6,18=5,40=1/2;
 3/5=7,11=2,16=1,17=8,25=1,30=1,70=2203,74=-53,75=-5/1,2,3;
 4//1;
 5/5=2,38=5/2;
 6/7=2,8=2,9=2,10=2,28=1/1;
 99/5=1,9=1/99;
 -------------------
 Title Card Required
 -------------------
 Symbolic Z-matrix:
 Charge =  0 Multiplicity = 4
 C                     2.96047  -0.53239   3.14781 
 C                     2.12509   0.29373   3.91024 
 C                     0.8031    0.57908   3.45411 
 C                     0.431     0.06665   2.15107 
 C                     2.48797  -1.05237   1.92616 
 H                     0.04814   1.68415   5.18449 
 H                     3.9645   -0.80948   3.50034 
 H                     2.46189   0.68808   4.88127 
 C                    -0.1983    1.27914   4.19078 
 C                    -1.7796    0.84756   2.41308 
 C                    -1.50633   1.37487   3.68837 
 H                    -2.31576   1.82442   4.28165 
 N                    -0.7921    0.31052   1.62791 
 N                     1.25118  -0.72686   1.41984 
 C                     3.15143  -2.07697   1.14016 
 C                    -3.0839    0.66214   1.79553 
 N                     2.60629  -2.57972   0.05554 
 N                    -3.20929  -0.00188   0.66724 
 Ni                   -1.29526   0.07695  -0.25172 
 C                     0.15815   1.18806  -1.09488 
 C                     0.41763   2.44288  -0.60413 
 C                    -1.17434  -0.66427  -2.1725 
 H                    -1.94993  -1.40621  -2.41566 
 C                    -1.35692   0.79163  -2.29015 
 H                    -0.6585    1.26582  -3.01184 
 C                     0.18294  -1.04293  -1.9287 
 H                     0.56161  -1.99873  -2.33119 
 C                     1.07631   0.18628  -1.77569 
 H                     1.43507   0.5625   -2.77026 
 H                    -0.43766   2.96844  -0.13946 
 C                    -5.29372   0.78083   1.47217 
 H                    -5.62572   1.72974   1.00161 
 H                    -6.12865   0.3605    2.06467 
 C                     4.48467  -3.83337   0.76338 
 H                     4.23763  -4.70554   1.40417 
 H                     5.55041  -3.89115   0.47214 
 C                     3.49513  -3.66328  -0.42675 
 H                     2.88213  -4.58078  -0.55684 
 C                    -4.65915  -0.20312   0.44862 
 H                    -4.91526   0.10739  -0.58496 
 O                     4.30701  -2.62955   1.56789 
 O                    -4.20928   1.09971   2.39708 
 Ni                    0.566    -2.03064   0.01187 
 Cl                   -0.55912  -3.98609  -0.26303 
 C                     4.18885  -3.37369  -1.80426 
 C                     5.08518  -2.11984  -1.72653 
 H                     4.49735  -1.22421  -1.43621 
 H                     5.9152   -2.23595  -0.99837 
 H                     5.54497  -1.91327  -2.71568 
 C                     5.03519  -4.61105  -2.18258 
 H                     4.40609  -5.52444  -2.24652 
 H                     5.51192  -4.46051  -3.1736 
 H                     5.8498   -4.8092   -1.45463 
 C                     3.11324  -3.1662   -2.88871 
 H                     2.53026  -2.24487  -2.69967 
 H                     3.58606  -3.06725  -3.8884 
 H                     2.40498  -4.02037  -2.92944 
 C                    -5.09533  -1.70348   0.60757 
 C                    -4.7704   -2.23334   2.02006 
 H                    -3.67977  -2.19583   2.21954 
 H                    -5.29036  -1.66039   2.81683 
 H                    -5.08997  -3.29212   2.11546 
 C                    -4.35644  -2.56158  -0.44062 
 H                    -4.5631   -2.20275  -1.47159 
 H                    -3.25948  -2.55786  -0.28173 
 H                    -4.69907  -3.61615  -0.38223 
 C                    -6.61553  -1.79411   0.34392 
 H                    -6.87529  -1.4055   -0.66416 
 H                    -6.95018  -2.85137   0.39284 
 H                    -7.21178  -1.22807   1.09048 
 C                     1.66579   3.20539  -0.55435 
 C                     1.67681   4.43926   0.15342 
 C                     2.89309   2.81736  -1.17209 
 C                     2.82271   5.24083   0.25835 
 H                     0.74785   4.7783    0.6414 
 C                     4.04113   3.60586  -1.07625 
 H                     2.94968   1.88494  -1.74933 
 C                     4.02523   4.82663  -0.35839 
 H                     2.76923   6.18432   0.82003 
 H                     4.9807    3.29692  -1.56025 
 C                     5.236     6.7573    0.38175 
 H                     4.52847   7.50073  -0.04907 
 H                     5.00327   6.62293   1.46188 
 H                     6.26813   7.14204   0.28083 
 O                     5.19808   5.52177  -0.32403 
 H                     1.97749  -0.02657  -1.16498 
 C                    -2.68231   1.47579  -2.40931 
 C                    -3.85905   0.77754  -2.77415 
 C                    -2.75517   2.88795  -2.29757 
 C                    -5.06399   1.46365  -3.00747 
 H                    -3.82704  -0.31441  -2.90659 
 C                    -3.96329   3.5703   -2.51022 
 H                    -1.84474   3.45337  -2.04449 
 C                    -5.12646   2.86167  -2.86637 
 H                    -5.96061   0.89838  -3.30892 
 H                    -3.99413   4.6672   -2.4099 
 H                    -6.07178   3.39748  -3.04685 
 
 Stoichiometry    C41H46ClN4Ni2O3(4)
 Framework group  C1[X(C41H46ClN4Ni2O3)]
 Deg. of freedom   285
 Full point group                 C1      NOp   1
 Largest Abelian subgroup         C1      NOp   1
 Largest concise Abelian subgroup C1      NOp   1
                         Standard orientation:                         
 ---------------------------------------------------------------------
 Center     Atomic      Atomic             Coordinates (Angstroms)
 Number     Number       Type             X           Y           Z
 ---------------------------------------------------------------------
      1          6           0        2.960467   -0.532391    3.147814
      2          6           0        2.125086    0.293728    3.910244
      3          6           0        0.803101    0.579080    3.454107
      4          6           0        0.430999    0.066645    2.151074
      5          6           0        2.487973   -1.052367    1.926158
      6          1           0        0.048138    1.684150    5.184486
      7          1           0        3.964499   -0.809475    3.500341
      8          1           0        2.461892    0.688078    4.881265
      9          6           0       -0.198301    1.279143    4.190777
     10          6           0       -1.779604    0.847563    2.413080
     11          6           0       -1.506330    1.374869    3.688371
     12          1           0       -2.315758    1.824424    4.281654
     13          7           0       -0.792099    0.310515    1.627905
     14          7           0        1.251182   -0.726859    1.419841
     15          6           0        3.151426   -2.076971    1.140157
     16          6           0       -3.083900    0.662140    1.795532
     17          7           0        2.606293   -2.579719    0.055537
     18          7           0       -3.209286   -0.001884    0.667239
     19         28           0       -1.295255    0.076950   -0.251715
     20          6           0        0.158146    1.188056   -1.094878
     21          6           0        0.417633    2.442877   -0.604134
     22          6           0       -1.174337   -0.664266   -2.172503
     23          1           0       -1.949932   -1.406207   -2.415660
     24          6           0       -1.356918    0.791632   -2.290153
     25          1           0       -0.658499    1.265822   -3.011841
     26          6           0        0.182937   -1.042933   -1.928696
     27          1           0        0.561611   -1.998733   -2.331193
     28          6           0        1.076305    0.186275   -1.775690
     29          1           0        1.435067    0.562501   -2.770264
     30          1           0       -0.437655    2.968442   -0.139463
     31          6           0       -5.293724    0.780827    1.472173
     32          1           0       -5.625722    1.729741    1.001609
     33          1           0       -6.128646    0.360499    2.064670
     34          6           0        4.484674   -3.833369    0.763383
     35          1           0        4.237629   -4.705538    1.404166
     36          1           0        5.550414   -3.891153    0.472137
     37          6           0        3.495128   -3.663282   -0.426752
     38          1           0        2.882134   -4.580781   -0.556836
     39          6           0       -4.659149   -0.203116    0.448622
     40          1           0       -4.915255    0.107386   -0.584959
     41          8           0        4.307005   -2.629545    1.567885
     42          8           0       -4.209284    1.099708    2.397077
     43         28           0        0.565997   -2.030640    0.011873
     44         17           0       -0.559116   -3.986086   -0.263026
     45          6           0        4.188854   -3.373689   -1.804260
     46          6           0        5.085176   -2.119837   -1.726530
     47          1           0        4.497345   -1.224210   -1.436206
     48          1           0        5.915202   -2.235951   -0.998369
     49          1           0        5.544966   -1.913273   -2.715683
     50          6           0        5.035187   -4.611046   -2.182580
     51          1           0        4.406088   -5.524441   -2.246523
     52          1           0        5.511917   -4.460511   -3.173598
     53          1           0        5.849798   -4.809202   -1.454625
     54          6           0        3.113243   -3.166202   -2.888713
     55          1           0        2.530255   -2.244874   -2.699668
     56          1           0        3.586057   -3.067252   -3.888402
     57          1           0        2.404981   -4.020372   -2.929438
     58          6           0       -5.095330   -1.703481    0.607572
     59          6           0       -4.770403   -2.233341    2.020055
     60          1           0       -3.679772   -2.195834    2.219539
     61          1           0       -5.290360   -1.660385    2.816825
     62          1           0       -5.089965   -3.292117    2.115460
     63          6           0       -4.356443   -2.561578   -0.440622
     64          1           0       -4.563100   -2.202747   -1.471586
     65          1           0       -3.259479   -2.557864   -0.281734
     66          1           0       -4.699065   -3.616148   -0.382231
     67          6           0       -6.615527   -1.794112    0.343915
     68          1           0       -6.875286   -1.405500   -0.664163
     69          1           0       -6.950175   -2.851370    0.392841
     70          1           0       -7.211782   -1.228068    1.090481
     71          6           0        1.665785    3.205389   -0.554353
     72          6           0        1.676808    4.439257    0.153422
     73          6           0        2.893088    2.817363   -1.172093
     74          6           0        2.822711    5.240831    0.258349
     75          1           0        0.747850    4.778297    0.641395
     76          6           0        4.041125    3.605859   -1.076255
     77          1           0        2.949684    1.884941   -1.749334
     78          6           0        4.025229    4.826630   -0.358386
     79          1           0        2.769227    6.184318    0.820032
     80          1           0        4.980698    3.296918   -1.560247
     81          6           0        5.236003    6.757298    0.381752
     82          1           0        4.528466    7.500725   -0.049072
     83          1           0        5.003271    6.622930    1.461876
     84          1           0        6.268129    7.142043    0.280825
     85          8           0        5.198079    5.521770   -0.324031
     86          1           0        1.977494   -0.026567   -1.164980
     87          6           0       -2.682311    1.475786   -2.409311
     88          6           0       -3.859047    0.777542   -2.774152
     89          6           0       -2.755166    2.887954   -2.297570
     90          6           0       -5.063987    1.463646   -3.007474
     91          1           0       -3.827041   -0.314406   -2.906590
     92          6           0       -3.963290    3.570300   -2.510218
     93          1           0       -1.844742    3.453370   -2.044494
     94          6           0       -5.126465    2.861671   -2.866374
     95          1           0       -5.960612    0.898381   -3.308919
     96          1           0       -3.994130    4.667199   -2.409902
     97          1           0       -6.071776    3.397477   -3.046853
 ---------------------------------------------------------------------
 Rotational constants (GHZ):           0.0617228           0.0463302           0.0363425
 General basis read from cards:  (5D, 7F)
 ======================================================================================================
                                       Pseudopotential Parameters
 ======================================================================================================
  Center     Atomic      Valence      Angular      Power
  Number     Number     Electrons     Momentum     of R      Exponent        Coefficient   SO-Coeffient
 ======================================================================================================
    1          6
                                   No pseudopotential on this center.
    2          6
                                   No pseudopotential on this center.
    3          6
                                   No pseudopotential on this center.
    4          6
                                   No pseudopotential on this center.
    5          6
                                   No pseudopotential on this center.
    6          1
                                   No pseudopotential on this center.
    7          1
                                   No pseudopotential on this center.
    8          1
                                   No pseudopotential on this center.
    9          6
                                   No pseudopotential on this center.
   10          6
                                   No pseudopotential on this center.
   11          6
                                   No pseudopotential on this center.
   12          1
                                   No pseudopotential on this center.
   13          7
                                   No pseudopotential on this center.
   14          7
                                   No pseudopotential on this center.
   15          6
                                   No pseudopotential on this center.
   16          6
                                   No pseudopotential on this center.
   17          7
                                   No pseudopotential on this center.
   18          7
                                   No pseudopotential on this center.
   19         28           18
                                      D and up 
                                                     1      469.9324331      -10.00000000    0.00000000
                                                     2       85.4236411      -69.40848050    0.00000000
                                                     2       21.2674984      -12.09510200    0.00000000
                                      S - D
                                                     0      162.1686097        3.00000000    0.00000000
                                                     1      176.5333232       22.02536180    0.00000000
                                                     2       68.9562010      443.01810880    0.00000000
                                                     2       13.5792838      145.56964110    0.00000000
                                      P - D
                                                     0       69.0181506        5.00000000    0.00000000
                                                     1      275.5955596        4.98828240    0.00000000
                                                     2       47.1315453      256.69458530    0.00000000
                                                     2       12.9874075       78.47544500    0.00000000
   20          6
                                   No pseudopotential on this center.
   21          6
                                   No pseudopotential on this center.
   22          6
                                   No pseudopotential on this center.
   23          1
                                   No pseudopotential on this center.
   24          6
                                   No pseudopotential on this center.
   25          1
                                   No pseudopotential on this center.
   26          6
                                   No pseudopotential on this center.
   27          1
                                   No pseudopotential on this center.
   28          6
                                   No pseudopotential on this center.
   29          1
                                   No pseudopotential on this center.
   30          1
                                   No pseudopotential on this center.
   31          6
                                   No pseudopotential on this center.
   32          1
                                   No pseudopotential on this center.
   33          1
                                   No pseudopotential on this center.
   34          6
                                   No pseudopotential on this center.
   35          1
                                   No pseudopotential on this center.
   36          1
                                   No pseudopotential on this center.
   37          6
                                   No pseudopotential on this center.
   38          1
                                   No pseudopotential on this center.
   39          6
                                   No pseudopotential on this center.
   40          1
                                   No pseudopotential on this center.
   41          8
                                   No pseudopotential on this center.
   42          8
                                   No pseudopotential on this center.
   43         28           18
                                      D and up 
                                                     1      469.9324331      -10.00000000    0.00000000
                                                     2       85.4236411      -69.40848050    0.00000000
                                                     2       21.2674984      -12.09510200    0.00000000
                                      S - D
                                                     0      162.1686097        3.00000000    0.00000000
                                                     1      176.5333232       22.02536180    0.00000000
                                                     2       68.9562010      443.01810880    0.00000000
                                                     2       13.5792838      145.56964110    0.00000000
                                      P - D
                                                     0       69.0181506        5.00000000    0.00000000
                                                     1      275.5955596        4.98828240    0.00000000
                                                     2       47.1315453      256.69458530    0.00000000
                                                     2       12.9874075       78.47544500    0.00000000
   44         17
                                   No pseudopotential on this center.
   45          6
                                   No pseudopotential on this center.
   46          6
                                   No pseudopotential on this center.
   47          1
                                   No pseudopotential on this center.
   48          1
                                   No pseudopotential on this center.
   49          1
                                   No pseudopotential on this center.
   50          6
                                   No pseudopotential on this center.
   51          1
                                   No pseudopotential on this center.
   52          1
                                   No pseudopotential on this center.
   53          1
                                   No pseudopotential on this center.
   54          6
                                   No pseudopotential on this center.
   55          1
                                   No pseudopotential on this center.
   56          1
                                   No pseudopotential on this center.
   57          1
                                   No pseudopotential on this center.
   58          6
                                   No pseudopotential on this center.
   59          6
                                   No pseudopotential on this center.
   60          1
                                   No pseudopotential on this center.
   61          1
                                   No pseudopotential on this center.
   62          1
                                   No pseudopotential on this center.
   63          6
                                   No pseudopotential on this center.
   64          1
                                   No pseudopotential on this center.
   65          1
                                   No pseudopotential on this center.
   66          1
                                   No pseudopotential on this center.
   67          6
                                   No pseudopotential on this center.
   68          1
                                   No pseudopotential on this center.
   69          1
                                   No pseudopotential on this center.
   70          1
                                   No pseudopotential on this center.
   71          6
                                   No pseudopotential on this center.
   72          6
                                   No pseudopotential on this center.
   73          6
                                   No pseudopotential on this center.
   74          6
                                   No pseudopotential on this center.
   75          1
                                   No pseudopotential on this center.
   76          6
                                   No pseudopotential on this center.
   77          1
                                   No pseudopotential on this center.
   78          6
                                   No pseudopotential on this center.
   79          1
                                   No pseudopotential on this center.
   80          1
                                   No pseudopotential on this center.
   81          6
                                   No pseudopotential on this center.
   82          1
                                   No pseudopotential on this center.
   83          1
                                   No pseudopotential on this center.
   84          1
                                   No pseudopotential on this center.
   85          8
                                   No pseudopotential on this center.
   86          1
                                   No pseudopotential on this center.
   87          6
                                   No pseudopotential on this center.
   88          6
                                   No pseudopotential on this center.
   89          6
                                   No pseudopotential on this center.
   90          6
                                   No pseudopotential on this center.
   91          1
                                   No pseudopotential on this center.
   92          6
                                   No pseudopotential on this center.
   93          1
                                   No pseudopotential on this center.
   94          6
                                   No pseudopotential on this center.
   95          1
                                   No pseudopotential on this center.
   96          1
                                   No pseudopotential on this center.
   97          1
                                   No pseudopotential on this center.
 ======================================================================================================
 There are  2094 symmetry adapted cartesian basis functions of A   symmetry.
 There are  1845 symmetry adapted basis functions of A   symmetry.
  1845 basis functions,  2989 primitive gaussians,  2094 cartesian basis functions
   200 alpha electrons      197 beta electrons
       nuclear repulsion energy      8347.0975735790 Hartrees.
 NAtoms=   97 NActive=   97 NUniq=   97 SFac= 1.00D+00 NAtFMM=   60 NAOKFM=T Big=T
 Integral buffers will be    131072 words long.
 Raffenetti 2 integral format.
 Two-electron integral symmetry is turned on.
 Using the following non-standard input for PCM:
 Eps=4.5
 --- end of non-standard input.
 ------------------------------------------------------------------------------
 Polarizable Continuum Model (PCM)
 =================================
 Model                : PCM.
 Atomic radii         : UFF (Universal Force Field).
 Polarization charges : Total charges.
 Charge compensation  : None.
 Solution method      : On-the-fly selection.
 Cavity type          : Scaled VdW (van der Waals Surface) (Alpha=1.100).
 Cavity algorithm     : GePol (No added spheres)
                        Default sphere list used, NSphG=   97.
                        Lebedev-Laikov grids with approx.  5.0 points / Ang**2.
                        Smoothing algorithm: York/Karplus (Gamma=1.0000).
                        Polarization charges: spherical gaussians, with
                                              point-specific exponents (IZeta= 3).
                        Self-potential: point-specific (ISelfS= 7).
                        Self-field    : sphere-specific E.n sum rule (ISelfD= 2).
 Solvent              : Water, Eps=   4.500000 Eps(inf)=   1.777849
 ------------------------------------------------------------------------------
 One-electron integrals computed using PRISM.
   1 Symmetry operations used in ECPInt.
 ECPInt:  NShTT=  274911 NPrTT=  843013 LenC2=  201121 LenP2D=  402442.
 LDataN:  DoStor=T MaxTD1= 6 Len=  172
 NBasis=  1845 RedAO= T EigKep=  6.81D-06  NBF=  1845
 NBsUse=  1845 1.00D-06 EigRej= -1.00D+00 NBFU=  1845
 ExpMin= 2.40D-02 ExpMax= 6.95D+04 ExpMxC= 2.37D+03 IAcc=3 IRadAn=         5 AccDes= 0.00D+00
 Harris functional with IExCor= 1009 and IRadAn=       5 diagonalized for initial guess.
 HarFok:  IExCor= 1009 AccDes= 0.00D+00 IRadAn=         5 IDoV= 1 UseB2=F ITyADJ=14
 ICtDFT=  3500011 ScaDFX=  1.000000  1.000000  1.000000  1.000000
 FoFCou: FMM=F IPFlag=           0 FMFlag=      100000 FMFlg1=        2001
         NFxFlg=           0 DoJE=T BraDBF=F KetDBF=T FulRan=T
         wScrn=  0.000000 ICntrl=       500 IOpCl=  0 I1Cent=   200000004 NGrid=           0
         NMat0=    1 NMatS0=      1 NMatT0=    0 NMatD0=    1 NMtDS0=    0 NMtDT0=    0
 Petite list used in FoFCou.
 Initial guess <Sx>= 0.0000 <Sy>= 0.0000 <Sz>= 1.5000 <S**2>= 3.7500 S= 1.5000
 Requested convergence on RMS density matrix=1.00D-08 within 128 cycles.
 Requested convergence on MAX density matrix=1.00D-06.
 Requested convergence on             energy=1.00D-06.
 No special actions if energy rises.
 Inv3:  Mode=1 IEnd=   110425467.
 Iteration    1 A*A^-1 deviation from unit magnitude is 3.33D-15 for   2237.
 Iteration    1 A*A^-1 deviation from orthogonality  is 2.78D-15 for   4060   2838.
 Iteration    1 A^-1*A deviation from unit magnitude is 3.22D-15 for   3599.
 Iteration    1 A^-1*A deviation from orthogonality  is 3.32D-15 for   3732   3713.
 EnCoef did   100 forward-backward iterations
 EnCoef did   100 forward-backward iterations
 EnCoef did   100 forward-backward iterations
 EnCoef did     4 forward-backward iterations
 EnCoef did    10 forward-backward iterations
 EnCoef did     6 forward-backward iterations
 EnCoef did     2 forward-backward iterations
 EnCoef did     2 forward-backward iterations
 Restarting incremental Fock formation.
 Error on total polarization charges =  0.01784
 SCF Done:  E(UM06L) =  -2834.17477112     A.U. after   37 cycles
            NFock= 37  Conv=0.38D-08     -V/T= 2.0516
 <Sx>= 0.0000 <Sy>= 0.0000 <Sz>= 1.5000 <S**2>= 3.8219 S= 1.5179
 <L.S>=  0.00000000000    
 Annihilation of the first spin contaminant:
 S**2 before annihilation     3.8219,   after     3.7516

 **********************************************************************

            Population analysis using the SCF Density.

 **********************************************************************

 Orbital symmetries:
 Alpha Orbitals:
       Occupied  (A) (A) (A) (A) (A) (A) (A) (A) (A) (A) (A) (A)
                 (A) (A) (A) (A) (A) (A) (A) (A) (A) (A) (A) (A)
                 (A) (A) (A) (A) (A) (A) (A) (A) (A) (A) (A) (A)
                 (A) (A) (A) (A) (A) (A) (A) (A) (A) (A) (A) (A)
                 (A) (A) (A) (A) (A) (A) (A) (A) (A) (A) (A) (A)
                 (A) (A) (A) (A) (A) (A) (A) (A) (A) (A) (A) (A)
                 (A) (A) (A) (A) (A) (A) (A) (A) (A) (A) (A) (A)
                 (A) (A) (A) (A) (A) (A) (A) (A) (A) (A) (A) (A)
                 (A) (A) (A) (A) (A) (A) (A) (A) (A) (A) (A) (A)
                 (A) (A) (A) (A) (A) (A) (A) (A) (A) (A) (A) (A)
                 (A) (A) (A) (A) (A) (A) (A) (A) (A) (A) (A) (A)
                 (A) (A) (A) (A) (A) (A) (A) (A) (A) (A) (A) (A)
                 (A) (A) (A) (A) (A) (A) (A) (A) (A) (A) (A) (A)
                 (A) (A) (A) (A) (A) (A) (A) (A) (A) (A) (A) (A)
                 (A) (A) (A) (A) (A) (A) (A) (A) (A) (A) (A) (A)
                 (A) (A) (A) (A) (A) (A) (A) (A) (A) (A) (A) (A)
                 (A) (A) (A) (A) (A) (A) (A) (A)
       Virtual   (A) (A) (A) (A) (A) (A) (A) (A) (A) (A) (A) (A)
                 (A) (A) (A) (A) (A) (A) (A) (A) (A) (A) (A) (A)
                 (A) (A) (A) (A) (A) (A) (A) (A) (A) (A) (A) (A)
                 (A) (A) (A) (A) (A) (A) (A) (A) (A) (A) (A) (A)
                 (A) (A) (A) (A) (A) (A) (A) (A) (A) (A) (A) (A)
                 (A) (A) (A) (A) (A) (A) (A) (A) (A) (A) (A) (A)
                 (A) (A) (A) (A) (A) (A) (A) (A) (A) (A) (A) (A)
                 (A) (A) (A) (A) (A) (A) (A) (A) (A) (A) (A) (A)
                 (A) (A) (A) (A) (A) (A) (A) (A) (A) (A) (A) (A)
                 (A) (A) (A) (A) (A) (A) (A) (A) (A) (A) (A) (A)
                 (A) (A) (A) (A) (A) (A) (A) (A) (A) (A) (A) (A)
                 (A) (A) (A) (A) (A) (A) (A) (A) (A) (A) (A) (A)
                 (A) (A) (A) (A) (A) (A) (A) (A) (A) (A) (A) (A)
                 (A) (A) (A) (A) (A) (A) (A) (A) (A) (A) (A) (A)
                 (A) (A) (A) (A) (A) (A) (A) (A) (A) (A) (A) (A)
                 (A) (A) (A) (A) (A) (A) (A) (A) (A) (A) (A) (A)
                 (A) (A) (A) (A) (A) (A) (A) (A) (A) (A) (A) (A)
                 (A) (A) (A) (A) (A) (A) (A) (A) (A) (A) (A) (A)
                 (A) (A) (A) (A) (A) (A) (A) (A) (A) (A) (A) (A)
                 (A) (A) (A) (A) (A) (A) (A) (A) (A) (A) (A) (A)
                 (A) (A) (A) (A) (A) (A) (A) (A) (A) (A) (A) (A)
                 (A) (A) (A) (A) (A) (A) (A) (A) (A) (A) (A) (A)
                 (A) (A) (A) (A) (A) (A) (A) (A) (A) (A) (A) (A)
                 (A) (A) (A) (A) (A) (A) (A) (A) (A) (A) (A) (A)
                 (A) (A) (A) (A) (A) (A) (A) (A) (A) (A) (A) (A)
                 (A) (A) (A) (A) (A) (A) (A) (A) (A) (A) (A) (A)
                 (A) (A) (A) (A) (A) (A) (A) (A) (A) (A) (A) (A)
                 (A) (A) (A) (A) (A) (A) (A) (A) (A) (A) (A) (A)
                 (A) (A) (A) (A) (A) (A) (A) (A) (A) (A) (A) (A)
                 (A) (A) (A) (A) (A) (A) (A) (A) (A) (A) (A) (A)
                 (A) (A) (A) (A) (A) (A) (A) (A) (A) (A) (A) (A)
                 (A) (A) (A) (A) (A) (A) (A) (A) (A) (A) (A) (A)
                 (A) (A) (A) (A) (A) (A) (A) (A) (A) (A) (A) (A)
                 (A) (A) (A) (A) (A) (A) (A) (A) (A) (A) (A) (A)
                 (A) (A) (A) (A) (A) (A) (A) (A) (A) (A) (A) (A)
                 (A) (A) (A) (A) (A) (A) (A) (A) (A) (A) (A) (A)
                 (A) (A) (A) (A) (A) (A) (A) (A) (A) (A) (A) (A)
                 (A) (A) (A) (A) (A) (A) (A) (A) (A) (A) (A) (A)
                 (A) (A) (A) (A) (A) (A) (A) (A) (A) (A) (A) (A)
                 (A) (A) (A) (A) (A) (A) (A) (A) (A) (A) (A) (A)
                 (A) (A) (A) (A) (A) (A) (A) (A) (A) (A) (A) (A)
                 (A) (A) (A) (A) (A) (A) (A) (A) (A) (A) (A) (A)
                 (A) (A) (A) (A) (A) (A) (A) (A) (A) (A) (A) (A)
                 (A) (A) (A) (A) (A) (A) (A) (A) (A) (A) (A) (A)
                 (A) (A) (A) (A) (A) (A) (A) (A) (A) (A) (A) (A)
                 (A) (A) (A) (A) (A) (A) (A) (A) (A) (A) (A) (A)
                 (A) (A) (A) (A) (A) (A) (A) (A) (A) (A) (A) (A)
                 (A) (A) (A) (A) (A) (A) (A) (A) (A) (A) (A) (A)
                 (A) (A) (A) (A) (A) (A) (A) (A) (A) (A) (A) (A)
                 (A) (A) (A) (A) (A) (A) (A) (A) (A) (A) (A) (A)
                 (A) (A) (A) (A) (A) (A) (A) (A) (A) (A) (A) (A)
                 (A) (A) (A) (A) (A) (A) (A) (A) (A) (A) (A) (A)
                 (A) (A) (A) (A) (A) (A) (A) (A) (A) (A) (A) (A)
                 (A) (A) (A) (A) (A) (A) (A) (A) (A) (A) (A) (A)
                 (A) (A) (A) (A) (A) (A) (A) (A) (A) (A) (A) (A)
                 (A) (A) (A) (A) (A) (A) (A) (A) (A) (A) (A) (A)
                 (A) (A) (A) (A) (A) (A) (A) (A) (A) (A) (A) (A)
                 (A) (A) (A) (A) (A) (A) (A) (A) (A) (A) (A) (A)
                 (A) (A) (A) (A) (A) (A) (A) (A) (A) (A) (A) (A)
                 (A) (A) (A) (A) (A) (A) (A) (A) (A) (A) (A) (A)
                 (A) (A) (A) (A) (A) (A) (A) (A) (A) (A) (A) (A)
                 (A) (A) (A) (A) (A) (A) (A) (A) (A) (A) (A) (A)
                 (A) (A) (A) (A) (A) (A) (A) (A) (A) (A) (A) (A)
                 (A) (A) (A) (A) (A) (A) (A) (A) (A) (A) (A) (A)
                 (A) (A) (A) (A) (A) (A) (A) (A) (A) (A) (A) (A)
                 (A) (A) (A) (A) (A) (A) (A) (A) (A) (A) (A) (A)
                 (A) (A) (A) (A) (A) (A) (A) (A) (A) (A) (A) (A)
                 (A) (A) (A) (A) (A) (A) (A) (A) (A) (A) (A) (A)
                 (A) (A) (A) (A) (A) (A) (A) (A) (A) (A) (A) (A)
                 (A) (A) (A) (A) (A) (A) (A) (A) (A) (A) (A) (A)
                 (A) (A) (A) (A) (A) (A) (A) (A) (A) (A) (A) (A)
                 (A) (A) (A) (A) (A) (A) (A) (A) (A) (A) (A) (A)
                 (A) (A) (A) (A) (A) (A) (A) (A) (A) (A) (A) (A)
                 (A) (A) (A) (A) (A) (A) (A) (A) (A) (A) (A) (A)
                 (A) (A) (A) (A) (A) (A) (A) (A) (A) (A) (A) (A)
                 (A) (A) (A) (A) (A) (A) (A) (A) (A) (A) (A) (A)
                 (A) (A) (A) (A) (A) (A) (A) (A) (A) (A) (A) (A)
                 (A) (A) (A) (A) (A) (A) (A) (A) (A) (A) (A) (A)
                 (A) (A) (A) (A) (A) (A) (A) (A) (A) (A) (A) (A)
                 (A) (A) (A) (A) (A) (A) (A) (A) (A) (A) (A) (A)
                 (A) (A) (A) (A) (A) (A) (A) (A) (A) (A) (A) (A)
                 (A) (A) (A) (A) (A) (A) (A) (A) (A) (A) (A) (A)
                 (A) (A) (A) (A) (A) (A) (A) (A) (A) (A) (A) (A)
                 (A) (A) (A) (A) (A) (A) (A) (A) (A) (A) (A) (A)
                 (A) (A) (A) (A) (A) (A) (A) (A) (A) (A) (A) (A)
                 (A) (A) (A) (A) (A) (A) (A) (A) (A) (A) (A) (A)
                 (A) (A) (A) (A) (A) (A) (A) (A) (A) (A) (A) (A)
                 (A) (A) (A) (A) (A) (A) (A) (A) (A) (A) (A) (A)
                 (A) (A) (A) (A) (A) (A) (A) (A) (A) (A) (A) (A)
                 (A) (A) (A) (A) (A) (A) (A) (A) (A) (A) (A) (A)
                 (A) (A) (A) (A) (A) (A) (A) (A) (A) (A) (A) (A)
                 (A) (A) (A) (A) (A) (A) (A) (A) (A) (A) (A) (A)
                 (A) (A) (A) (A) (A) (A) (A) (A) (A) (A) (A) (A)
                 (A) (A) (A) (A) (A) (A) (A) (A) (A) (A) (A) (A)
                 (A) (A) (A) (A) (A) (A) (A) (A) (A) (A) (A) (A)
                 (A) (A) (A) (A) (A) (A) (A) (A) (A) (A) (A) (A)
                 (A) (A) (A) (A) (A) (A) (A) (A) (A) (A) (A) (A)
                 (A) (A) (A) (A) (A) (A) (A) (A) (A) (A) (A) (A)
                 (A) (A) (A) (A) (A) (A) (A) (A) (A) (A) (A) (A)
                 (A) (A) (A) (A) (A) (A) (A) (A) (A) (A) (A) (A)
                 (A) (A) (A) (A) (A) (A) (A) (A) (A) (A) (A) (A)
                 (A) (A) (A) (A) (A) (A) (A) (A) (A) (A) (A) (A)
                 (A) (A) (A) (A) (A) (A) (A) (A) (A) (A) (A) (A)
                 (A) (A) (A) (A) (A) (A) (A) (A) (A) (A) (A) (A)
                 (A) (A) (A) (A) (A) (A) (A) (A) (A) (A) (A) (A)
                 (A) (A) (A) (A) (A) (A) (A) (A) (A) (A) (A) (A)
                 (A) (A) (A) (A) (A) (A) (A) (A) (A) (A) (A) (A)
                 (A) (A) (A) (A) (A) (A) (A) (A) (A) (A) (A) (A)
                 (A) (A) (A) (A) (A) (A) (A) (A) (A) (A) (A) (A)
                 (A) (A) (A) (A) (A) (A) (A) (A) (A) (A) (A) (A)
                 (A) (A) (A) (A) (A) (A) (A) (A) (A) (A) (A) (A)
                 (A) (A) (A) (A) (A) (A) (A) (A) (A) (A) (A) (A)
                 (A) (A) (A) (A) (A) (A) (A) (A) (A) (A) (A) (A)
                 (A) (A) (A) (A) (A) (A) (A) (A) (A) (A) (A) (A)
                 (A) (A) (A) (A) (A) (A) (A) (A) (A) (A) (A) (A)
                 (A) (A) (A) (A) (A) (A) (A) (A) (A) (A) (A) (A)
                 (A) (A) (A) (A) (A) (A) (A) (A) (A) (A) (A) (A)
                 (A) (A) (A) (A) (A) (A) (A) (A) (A) (A) (A) (A)
                 (A) (A) (A) (A) (A) (A) (A) (A) (A) (A) (A) (A)
                 (A) (A) (A) (A) (A) (A) (A) (A) (A) (A) (A) (A)
                 (A) (A) (A) (A) (A) (A) (A) (A) (A) (A) (A) (A)
                 (A) (A) (A) (A) (A) (A) (A) (A) (A) (A) (A) (A)
                 (A) (A) (A) (A) (A) (A) (A) (A) (A) (A) (A) (A)
                 (A) (A) (A) (A) (A) (A) (A) (A) (A) (A) (A) (A)
                 (A) (A) (A) (A) (A) (A) (A) (A) (A) (A) (A) (A)
                 (A) (A) (A) (A) (A) (A) (A) (A) (A) (A) (A) (A)
                 (A) (A) (A) (A) (A) (A) (A) (A) (A) (A) (A) (A)
                 (A) (A) (A) (A) (A) (A) (A) (A) (A) (A) (A) (A)
                 (A) (A) (A) (A) (A) (A) (A) (A) (A) (A) (A) (A)
                 (A) (A) (A) (A) (A) (A) (A) (A) (A) (A) (A) (A)
                 (A) (A) (A) (A) (A) (A) (A) (A) (A) (A) (A) (A)
                 (A) (A) (A) (A) (A) (A) (A) (A) (A) (A) (A) (A)
                 (A) (A) (A) (A) (A) (A) (A) (A) (A) (A) (A) (A)
                 (A) (A) (A) (A) (A) (A) (A) (A) (A) (A) (A) (A)
                 (A) (A) (A) (A) (A) (A) (A) (A) (A) (A) (A) (A)
                 (A) (A) (A) (A) (A) (A) (A) (A) (A) (A) (A) (A)
                 (A) (A) (A) (A) (A) (A) (A) (A) (A) (A) (A) (A)
                 (A)
 Beta  Orbitals:
       Occupied  (A) (A) (A) (A) (A) (A) (A) (A) (A) (A) (A) (A)
                 (A) (A) (A) (A) (A) (A) (A) (A) (A) (A) (A) (A)
                 (A) (A) (A) (A) (A) (A) (A) (A) (A) (A) (A) (A)
                 (A) (A) (A) (A) (A) (A) (A) (A) (A) (A) (A) (A)
                 (A) (A) (A) (A) (A) (A) (A) (A) (A) (A) (A) (A)
                 (A) (A) (A) (A) (A) (A) (A) (A) (A) (A) (A) (A)
                 (A) (A) (A) (A) (A) (A) (A) (A) (A) (A) (A) (A)
                 (A) (A) (A) (A) (A) (A) (A) (A) (A) (A) (A) (A)
                 (A) (A) (A) (A) (A) (A) (A) (A) (A) (A) (A) (A)
                 (A) (A) (A) (A) (A) (A) (A) (A) (A) (A) (A) (A)
                 (A) (A) (A) (A) (A) (A) (A) (A) (A) (A) (A) (A)
                 (A) (A) (A) (A) (A) (A) (A) (A) (A) (A) (A) (A)
                 (A) (A) (A) (A) (A) (A) (A) (A) (A) (A) (A) (A)
                 (A) (A) (A) (A) (A) (A) (A) (A) (A) (A) (A) (A)
                 (A) (A) (A) (A) (A) (A) (A) (A) (A) (A) (A) (A)
                 (A) (A) (A) (A) (A) (A) (A) (A) (A) (A) (A) (A)
                 (A) (A) (A) (A) (A)
       Virtual   (A) (A) (A) (A) (A) (A) (A) (A) (A) (A) (A) (A)
                 (A) (A) (A) (A) (A) (A) (A) (A) (A) (A) (A) (A)
                 (A) (A) (A) (A) (A) (A) (A) (A) (A) (A) (A) (A)
                 (A) (A) (A) (A) (A) (A) (A) (A) (A) (A) (A) (A)
                 (A) (A) (A) (A) (A) (A) (A) (A) (A) (A) (A) (A)
                 (A) (A) (A) (A) (A) (A) (A) (A) (A) (A) (A) (A)
                 (A) (A) (A) (A) (A) (A) (A) (A) (A) (A) (A) (A)
                 (A) (A) (A) (A) (A) (A) (A) (A) (A) (A) (A) (A)
                 (A) (A) (A) (A) (A) (A) (A) (A) (A) (A) (A) (A)
                 (A) (A) (A) (A) (A) (A) (A) (A) (A) (A) (A) (A)
                 (A) (A) (A) (A) (A) (A) (A) (A) (A) (A) (A) (A)
                 (A) (A) (A) (A) (A) (A) (A) (A) (A) (A) (A) (A)
                 (A) (A) (A) (A) (A) (A) (A) (A) (A) (A) (A) (A)
                 (A) (A) (A) (A) (A) (A) (A) (A) (A) (A) (A) (A)
                 (A) (A) (A) (A) (A) (A) (A) (A) (A) (A) (A) (A)
                 (A) (A) (A) (A) (A) (A) (A) (A) (A) (A) (A) (A)
                 (A) (A) (A) (A) (A) (A) (A) (A) (A) (A) (A) (A)
                 (A) (A) (A) (A) (A) (A) (A) (A) (A) (A) (A) (A)
                 (A) (A) (A) (A) (A) (A) (A) (A) (A) (A) (A) (A)
                 (A) (A) (A) (A) (A) (A) (A) (A) (A) (A) (A) (A)
                 (A) (A) (A) (A) (A) (A) (A) (A) (A) (A) (A) (A)
                 (A) (A) (A) (A) (A) (A) (A) (A) (A) (A) (A) (A)
                 (A) (A) (A) (A) (A) (A) (A) (A) (A) (A) (A) (A)
                 (A) (A) (A) (A) (A) (A) (A) (A) (A) (A) (A) (A)
                 (A) (A) (A) (A) (A) (A) (A) (A) (A) (A) (A) (A)
                 (A) (A) (A) (A) (A) (A) (A) (A) (A) (A) (A) (A)
                 (A) (A) (A) (A) (A) (A) (A) (A) (A) (A) (A) (A)
                 (A) (A) (A) (A) (A) (A) (A) (A) (A) (A) (A) (A)
                 (A) (A) (A) (A) (A) (A) (A) (A) (A) (A) (A) (A)
                 (A) (A) (A) (A) (A) (A) (A) (A) (A) (A) (A) (A)
                 (A) (A) (A) (A) (A) (A) (A) (A) (A) (A) (A) (A)
                 (A) (A) (A) (A) (A) (A) (A) (A) (A) (A) (A) (A)
                 (A) (A) (A) (A) (A) (A) (A) (A) (A) (A) (A) (A)
                 (A) (A) (A) (A) (A) (A) (A) (A) (A) (A) (A) (A)
                 (A) (A) (A) (A) (A) (A) (A) (A) (A) (A) (A) (A)
                 (A) (A) (A) (A) (A) (A) (A) (A) (A) (A) (A) (A)
                 (A) (A) (A) (A) (A) (A) (A) (A) (A) (A) (A) (A)
                 (A) (A) (A) (A) (A) (A) (A) (A) (A) (A) (A) (A)
                 (A) (A) (A) (A) (A) (A) (A) (A) (A) (A) (A) (A)
                 (A) (A) (A) (A) (A) (A) (A) (A) (A) (A) (A) (A)
                 (A) (A) (A) (A) (A) (A) (A) (A) (A) (A) (A) (A)
                 (A) (A) (A) (A) (A) (A) (A) (A) (A) (A) (A) (A)
                 (A) (A) (A) (A) (A) (A) (A) (A) (A) (A) (A) (A)
                 (A) (A) (A) (A) (A) (A) (A) (A) (A) (A) (A) (A)
                 (A) (A) (A) (A) (A) (A) (A) (A) (A) (A) (A) (A)
                 (A) (A) (A) (A) (A) (A) (A) (A) (A) (A) (A) (A)
                 (A) (A) (A) (A) (A) (A) (A) (A) (A) (A) (A) (A)
                 (A) (A) (A) (A) (A) (A) (A) (A) (A) (A) (A) (A)
                 (A) (A) (A) (A) (A) (A) (A) (A) (A) (A) (A) (A)
                 (A) (A) (A) (A) (A) (A) (A) (A) (A) (A) (A) (A)
                 (A) (A) (A) (A) (A) (A) (A) (A) (A) (A) (A) (A)
                 (A) (A) (A) (A) (A) (A) (A) (A) (A) (A) (A) (A)
                 (A) (A) (A) (A) (A) (A) (A) (A) (A) (A) (A) (A)
                 (A) (A) (A) (A) (A) (A) (A) (A) (A) (A) (A) (A)
                 (A) (A) (A) (A) (A) (A) (A) (A) (A) (A) (A) (A)
                 (A) (A) (A) (A) (A) (A) (A) (A) (A) (A) (A) (A)
                 (A) (A) (A) (A) (A) (A) (A) (A) (A) (A) (A) (A)
                 (A) (A) (A) (A) (A) (A) (A) (A) (A) (A) (A) (A)
                 (A) (A) (A) (A) (A) (A) (A) (A) (A) (A) (A) (A)
                 (A) (A) (A) (A) (A) (A) (A) (A) (A) (A) (A) (A)
                 (A) (A) (A) (A) (A) (A) (A) (A) (A) (A) (A) (A)
                 (A) (A) (A) (A) (A) (A) (A) (A) (A) (A) (A) (A)
                 (A) (A) (A) (A) (A) (A) (A) (A) (A) (A) (A) (A)
                 (A) (A) (A) (A) (A) (A) (A) (A) (A) (A) (A) (A)
                 (A) (A) (A) (A) (A) (A) (A) (A) (A) (A) (A) (A)
                 (A) (A) (A) (A) (A) (A) (A) (A) (A) (A) (A) (A)
                 (A) (A) (A) (A) (A) (A) (A) (A) (A) (A) (A) (A)
                 (A) (A) (A) (A) (A) (A) (A) (A) (A) (A) (A) (A)
                 (A) (A) (A) (A) (A) (A) (A) (A) (A) (A) (A) (A)
                 (A) (A) (A) (A) (A) (A) (A) (A) (A) (A) (A) (A)
                 (A) (A) (A) (A) (A) (A) (A) (A) (A) (A) (A) (A)
                 (A) (A) (A) (A) (A) (A) (A) (A) (A) (A) (A) (A)
                 (A) (A) (A) (A) (A) (A) (A) (A) (A) (A) (A) (A)
                 (A) (A) (A) (A) (A) (A) (A) (A) (A) (A) (A) (A)
                 (A) (A) (A) (A) (A) (A) (A) (A) (A) (A) (A) (A)
                 (A) (A) (A) (A) (A) (A) (A) (A) (A) (A) (A) (A)
                 (A) (A) (A) (A) (A) (A) (A) (A) (A) (A) (A) (A)
                 (A) (A) (A) (A) (A) (A) (A) (A) (A) (A) (A) (A)
                 (A) (A) (A) (A) (A) (A) (A) (A) (A) (A) (A) (A)
                 (A) (A) (A) (A) (A) (A) (A) (A) (A) (A) (A) (A)
                 (A) (A) (A) (A) (A) (A) (A) (A) (A) (A) (A) (A)
                 (A) (A) (A) (A) (A) (A) (A) (A) (A) (A) (A) (A)
                 (A) (A) (A) (A) (A) (A) (A) (A) (A) (A) (A) (A)
                 (A) (A) (A) (A) (A) (A) (A) (A) (A) (A) (A) (A)
                 (A) (A) (A) (A) (A) (A) (A) (A) (A) (A) (A) (A)
                 (A) (A) (A) (A) (A) (A) (A) (A) (A) (A) (A) (A)
                 (A) (A) (A) (A) (A) (A) (A) (A) (A) (A) (A) (A)
                 (A) (A) (A) (A) (A) (A) (A) (A) (A) (A) (A) (A)
                 (A) (A) (A) (A) (A) (A) (A) (A) (A) (A) (A) (A)
                 (A) (A) (A) (A) (A) (A) (A) (A) (A) (A) (A) (A)
                 (A) (A) (A) (A) (A) (A) (A) (A) (A) (A) (A) (A)
                 (A) (A) (A) (A) (A) (A) (A) (A) (A) (A) (A) (A)
                 (A) (A) (A) (A) (A) (A) (A) (A) (A) (A) (A) (A)
                 (A) (A) (A) (A) (A) (A) (A) (A) (A) (A) (A) (A)
                 (A) (A) (A) (A) (A) (A) (A) (A) (A) (A) (A) (A)
                 (A) (A) (A) (A) (A) (A) (A) (A) (A) (A) (A) (A)
                 (A) (A) (A) (A) (A) (A) (A) (A) (A) (A) (A) (A)
                 (A) (A) (A) (A) (A) (A) (A) (A) (A) (A) (A) (A)
                 (A) (A) (A) (A) (A) (A) (A) (A) (A) (A) (A) (A)
                 (A) (A) (A) (A) (A) (A) (A) (A) (A) (A) (A) (A)
                 (A) (A) (A) (A) (A) (A) (A) (A) (A) (A) (A) (A)
                 (A) (A) (A) (A) (A) (A) (A) (A) (A) (A) (A) (A)
                 (A) (A) (A) (A) (A) (A) (A) (A) (A) (A) (A) (A)
                 (A) (A) (A) (A) (A) (A) (A) (A) (A) (A) (A) (A)
                 (A) (A) (A) (A) (A) (A) (A) (A) (A) (A) (A) (A)
                 (A) (A) (A) (A) (A) (A) (A) (A) (A) (A) (A) (A)
                 (A) (A) (A) (A) (A) (A) (A) (A) (A) (A) (A) (A)
                 (A) (A) (A) (A) (A) (A) (A) (A) (A) (A) (A) (A)
                 (A) (A) (A) (A) (A) (A) (A) (A) (A) (A) (A) (A)
                 (A) (A) (A) (A) (A) (A) (A) (A) (A) (A) (A) (A)
                 (A) (A) (A) (A) (A) (A) (A) (A) (A) (A) (A) (A)
                 (A) (A) (A) (A) (A) (A) (A) (A) (A) (A) (A) (A)
                 (A) (A) (A) (A) (A) (A) (A) (A) (A) (A) (A) (A)
                 (A) (A) (A) (A) (A) (A) (A) (A) (A) (A) (A) (A)
                 (A) (A) (A) (A) (A) (A) (A) (A) (A) (A) (A) (A)
                 (A) (A) (A) (A) (A) (A) (A) (A) (A) (A) (A) (A)
                 (A) (A) (A) (A) (A) (A) (A) (A) (A) (A) (A) (A)
                 (A) (A) (A) (A) (A) (A) (A) (A) (A) (A) (A) (A)
                 (A) (A) (A) (A) (A) (A) (A) (A) (A) (A) (A) (A)
                 (A) (A) (A) (A) (A) (A) (A) (A) (A) (A) (A) (A)
                 (A) (A) (A) (A) (A) (A) (A) (A) (A) (A) (A) (A)
                 (A) (A) (A) (A) (A) (A) (A) (A) (A) (A) (A) (A)
                 (A) (A) (A) (A) (A) (A) (A) (A) (A) (A) (A) (A)
                 (A) (A) (A) (A) (A) (A) (A) (A) (A) (A) (A) (A)
                 (A) (A) (A) (A) (A) (A) (A) (A) (A) (A) (A) (A)
                 (A) (A) (A) (A) (A) (A) (A) (A) (A) (A) (A) (A)
                 (A) (A) (A) (A) (A) (A) (A) (A) (A) (A) (A) (A)
                 (A) (A) (A) (A) (A) (A) (A) (A) (A) (A) (A) (A)
                 (A) (A) (A) (A) (A) (A) (A) (A) (A) (A) (A) (A)
                 (A) (A) (A) (A) (A) (A) (A) (A) (A) (A) (A) (A)
                 (A) (A) (A) (A) (A) (A) (A) (A) (A) (A) (A) (A)
                 (A) (A) (A) (A) (A) (A) (A) (A) (A) (A) (A) (A)
                 (A) (A) (A) (A) (A) (A) (A) (A) (A) (A) (A) (A)
                 (A) (A) (A) (A) (A) (A) (A) (A) (A) (A) (A) (A)
                 (A) (A) (A) (A) (A) (A) (A) (A) (A) (A) (A) (A)
                 (A) (A) (A) (A) (A) (A) (A) (A) (A) (A) (A) (A)
                 (A) (A) (A) (A) (A) (A) (A) (A) (A) (A) (A) (A)
                 (A) (A) (A) (A)
 The electronic state is 4-A.
 Alpha  occ. eigenvalues -- -101.09070 -19.02028 -19.02025 -19.00494 -14.19153
 Alpha  occ. eigenvalues --  -14.18994 -14.18272 -14.18120 -10.15403 -10.15285
 Alpha  occ. eigenvalues --  -10.13084 -10.11912 -10.11883 -10.11543 -10.10819
 Alpha  occ. eigenvalues --  -10.10485 -10.10385 -10.09760 -10.09655 -10.09410
 Alpha  occ. eigenvalues --  -10.08542 -10.07591 -10.07491 -10.07364 -10.07341
 Alpha  occ. eigenvalues --  -10.07301 -10.07172 -10.07106 -10.07020 -10.06824
 Alpha  occ. eigenvalues --  -10.06376 -10.06263 -10.06194 -10.06147 -10.06131
 Alpha  occ. eigenvalues --  -10.06119 -10.05975 -10.05931 -10.05719 -10.05693
 Alpha  occ. eigenvalues --  -10.05556 -10.05390 -10.04658 -10.04656 -10.04549
 Alpha  occ. eigenvalues --  -10.04508 -10.04150 -10.04061 -10.03544  -9.32047
 Alpha  occ. eigenvalues --   -7.02426  -7.02206  -7.02182  -4.04870  -3.99070
 Alpha  occ. eigenvalues --   -2.64347  -2.63660  -2.61838  -2.58896  -2.58439
 Alpha  occ. eigenvalues --   -2.55627  -1.07176  -1.07107  -1.04125  -0.94888
 Alpha  occ. eigenvalues --   -0.90218  -0.88209  -0.87164  -0.82724  -0.81506
 Alpha  occ. eigenvalues --   -0.80301  -0.79503  -0.79095  -0.78396  -0.75766
 Alpha  occ. eigenvalues --   -0.74783  -0.74545  -0.73269  -0.72597  -0.71288
 Alpha  occ. eigenvalues --   -0.71165  -0.70295  -0.69745  -0.69454  -0.67198
 Alpha  occ. eigenvalues --   -0.65549  -0.65357  -0.64990  -0.64794  -0.64547
 Alpha  occ. eigenvalues --   -0.64200  -0.62901  -0.61676  -0.60872  -0.60708
 Alpha  occ. eigenvalues --   -0.58524  -0.57462  -0.57128  -0.56739  -0.56080
 Alpha  occ. eigenvalues --   -0.55343  -0.54923  -0.52148  -0.51198  -0.50931
 Alpha  occ. eigenvalues --   -0.50397  -0.49844  -0.49181  -0.49068  -0.48460
 Alpha  occ. eigenvalues --   -0.47623  -0.46633  -0.46491  -0.45984  -0.45742
 Alpha  occ. eigenvalues --   -0.45498  -0.44390  -0.43765  -0.42981  -0.42818
 Alpha  occ. eigenvalues --   -0.42647  -0.42574  -0.42084  -0.41708  -0.41515
 Alpha  occ. eigenvalues --   -0.41143  -0.40947  -0.40818  -0.40547  -0.40463
 Alpha  occ. eigenvalues --   -0.40219  -0.40018  -0.39507  -0.39080  -0.38687
 Alpha  occ. eigenvalues --   -0.38523  -0.38449  -0.38387  -0.37659  -0.37622
 Alpha  occ. eigenvalues --   -0.37066  -0.36927  -0.36861  -0.35671  -0.35456
 Alpha  occ. eigenvalues --   -0.35316  -0.35238  -0.34964  -0.34767  -0.34616
 Alpha  occ. eigenvalues --   -0.34415  -0.34264  -0.34071  -0.33551  -0.33475
 Alpha  occ. eigenvalues --   -0.33310  -0.33133  -0.32939  -0.32779  -0.32601
 Alpha  occ. eigenvalues --   -0.32208  -0.32101  -0.31644  -0.31584  -0.31324
 Alpha  occ. eigenvalues --   -0.31224  -0.31082  -0.30790  -0.30560  -0.29977
 Alpha  occ. eigenvalues --   -0.29900  -0.29547  -0.29481  -0.29279  -0.29118
 Alpha  occ. eigenvalues --   -0.29025  -0.28171  -0.27631  -0.26043  -0.25955
 Alpha  occ. eigenvalues --   -0.25539  -0.25159  -0.25030  -0.24371  -0.23856
 Alpha  occ. eigenvalues --   -0.23633  -0.23564  -0.23494  -0.22868  -0.22186
 Alpha  occ. eigenvalues --   -0.21986  -0.20954  -0.20784  -0.20583  -0.19255
 Alpha  occ. eigenvalues --   -0.18551  -0.17854  -0.16444  -0.15931  -0.13346
 Alpha virt. eigenvalues --   -0.09190  -0.07358  -0.06229  -0.04613  -0.04173
 Alpha virt. eigenvalues --   -0.03978  -0.03724  -0.03682   0.00276   0.00684
 Alpha virt. eigenvalues --    0.01045   0.01640   0.01959   0.02212   0.02980
 Alpha virt. eigenvalues --    0.03437   0.03493   0.04628   0.04796   0.05221
 Alpha virt. eigenvalues --    0.05340   0.05755   0.05804   0.06049   0.06145
 Alpha virt. eigenvalues --    0.06463   0.06625   0.06941   0.07138   0.07271
 Alpha virt. eigenvalues --    0.07491   0.07775   0.07921   0.08385   0.08555
 Alpha virt. eigenvalues --    0.08890   0.09158   0.09369   0.09556   0.09706
 Alpha virt. eigenvalues --    0.10039   0.10080   0.10253   0.10541   0.10572
 Alpha virt. eigenvalues --    0.10757   0.11085   0.11324   0.11451   0.11534
 Alpha virt. eigenvalues --    0.11779   0.11875   0.12194   0.12367   0.12609
 Alpha virt. eigenvalues --    0.12822   0.13000   0.13028   0.13150   0.13353
 Alpha virt. eigenvalues --    0.13627   0.13692   0.13831   0.14301   0.14507
 Alpha virt. eigenvalues --    0.14595   0.14778   0.14940   0.15050   0.15346
 Alpha virt. eigenvalues --    0.15451   0.15551   0.15830   0.15952   0.16352
 Alpha virt. eigenvalues --    0.16463   0.16788   0.16909   0.17149   0.17212
 Alpha virt. eigenvalues --    0.17248   0.17792   0.18276   0.18351   0.18629
 Alpha virt. eigenvalues --    0.18957   0.19049   0.19289   0.19457   0.19698
 Alpha virt. eigenvalues --    0.19958   0.20128   0.20393   0.20520   0.20741
 Alpha virt. eigenvalues --    0.20827   0.21220   0.21573   0.21715   0.22000
 Alpha virt. eigenvalues --    0.22114   0.22553   0.22605   0.22746   0.22896
 Alpha virt. eigenvalues --    0.22980   0.23144   0.23337   0.23480   0.23563
 Alpha virt. eigenvalues --    0.23799   0.24002   0.24392   0.24658   0.24790
 Alpha virt. eigenvalues --    0.25087   0.25148   0.25295   0.25508   0.25740
 Alpha virt. eigenvalues --    0.25887   0.25969   0.26243   0.26352   0.26651
 Alpha virt. eigenvalues --    0.26913   0.27107   0.27248   0.27338   0.27520
 Alpha virt. eigenvalues --    0.27701   0.28208   0.28474   0.28560   0.28687
 Alpha virt. eigenvalues --    0.28922   0.28988   0.29166   0.29520   0.29665
 Alpha virt. eigenvalues --    0.29820   0.29899   0.30115   0.30183   0.30420
 Alpha virt. eigenvalues --    0.30760   0.30795   0.31040   0.31499   0.31621
 Alpha virt. eigenvalues --    0.31870   0.32051   0.32343   0.32367   0.32605
 Alpha virt. eigenvalues --    0.32933   0.33065   0.33347   0.33520   0.33680
 Alpha virt. eigenvalues --    0.33924   0.33980   0.34233   0.34298   0.34606
 Alpha virt. eigenvalues --    0.34682   0.34836   0.35058   0.35230   0.35514
 Alpha virt. eigenvalues --    0.35685   0.35742   0.36075   0.36196   0.36403
 Alpha virt. eigenvalues --    0.36693   0.36753   0.36896   0.37041   0.37134
 Alpha virt. eigenvalues --    0.37282   0.37464   0.37777   0.37931   0.38099
 Alpha virt. eigenvalues --    0.38323   0.38358   0.38568   0.38684   0.38960
 Alpha virt. eigenvalues --    0.38979   0.39103   0.39160   0.39450   0.39727
 Alpha virt. eigenvalues --    0.39864   0.40077   0.40184   0.40403   0.40538
 Alpha virt. eigenvalues --    0.40848   0.41025   0.41174   0.41259   0.41338
 Alpha virt. eigenvalues --    0.41815   0.41964   0.42073   0.42095   0.42269
 Alpha virt. eigenvalues --    0.42430   0.42669   0.42774   0.42888   0.42931
 Alpha virt. eigenvalues --    0.43096   0.43237   0.43393   0.43529   0.43827
 Alpha virt. eigenvalues --    0.43952   0.44205   0.44255   0.44338   0.44577
 Alpha virt. eigenvalues --    0.44695   0.44822   0.44900   0.45141   0.45348
 Alpha virt. eigenvalues --    0.45450   0.45555   0.45749   0.45815   0.46000
 Alpha virt. eigenvalues --    0.46228   0.46269   0.46692   0.46794   0.46958
 Alpha virt. eigenvalues --    0.47126   0.47318   0.47554   0.47714   0.47970
 Alpha virt. eigenvalues --    0.48008   0.48263   0.48424   0.48662   0.48814
 Alpha virt. eigenvalues --    0.48946   0.49217   0.49445   0.49633   0.49742
 Alpha virt. eigenvalues --    0.50182   0.50236   0.50408   0.50714   0.50946
 Alpha virt. eigenvalues --    0.51392   0.51464   0.51678   0.52170   0.52276
 Alpha virt. eigenvalues --    0.52656   0.52751   0.52941   0.53449   0.53617
 Alpha virt. eigenvalues --    0.53942   0.54310   0.54614   0.54678   0.54771
 Alpha virt. eigenvalues --    0.54899   0.55194   0.55555   0.56069   0.56542
 Alpha virt. eigenvalues --    0.56780   0.57031   0.57185   0.57571   0.57886
 Alpha virt. eigenvalues --    0.57940   0.58265   0.58641   0.58974   0.59112
 Alpha virt. eigenvalues --    0.59632   0.59853   0.60103   0.60235   0.60938
 Alpha virt. eigenvalues --    0.61029   0.61257   0.61455   0.61983   0.62117
 Alpha virt. eigenvalues --    0.62313   0.62406   0.62639   0.62918   0.63364
 Alpha virt. eigenvalues --    0.63656   0.64155   0.64216   0.64473   0.64595
 Alpha virt. eigenvalues --    0.65091   0.65306   0.65469   0.65686   0.65930
 Alpha virt. eigenvalues --    0.66368   0.66527   0.66653   0.67052   0.67245
 Alpha virt. eigenvalues --    0.67546   0.67770   0.68055   0.68179   0.68207
 Alpha virt. eigenvalues --    0.68569   0.68592   0.69031   0.69178   0.69668
 Alpha virt. eigenvalues --    0.70018   0.70260   0.70357   0.70442   0.70702
 Alpha virt. eigenvalues --    0.70949   0.71304   0.71524   0.71689   0.72015
 Alpha virt. eigenvalues --    0.72094   0.72484   0.72748   0.73059   0.73312
 Alpha virt. eigenvalues --    0.73572   0.73727   0.74057   0.74536   0.74931
 Alpha virt. eigenvalues --    0.75178   0.75228   0.75462   0.75897   0.76342
 Alpha virt. eigenvalues --    0.76647   0.76683   0.76791   0.77405   0.77726
 Alpha virt. eigenvalues --    0.78002   0.78176   0.78512   0.78688   0.79258
 Alpha virt. eigenvalues --    0.79468   0.79740   0.79767   0.80317   0.80493
 Alpha virt. eigenvalues --    0.80639   0.81002   0.81228   0.81506   0.81779
 Alpha virt. eigenvalues --    0.81927   0.82143   0.82311   0.83011   0.83317
 Alpha virt. eigenvalues --    0.83506   0.83817   0.84004   0.84441   0.84682
 Alpha virt. eigenvalues --    0.84918   0.85269   0.85494   0.85691   0.85979
 Alpha virt. eigenvalues --    0.86089   0.86620   0.86707   0.87128   0.87190
 Alpha virt. eigenvalues --    0.87847   0.88227   0.88361   0.88408   0.88998
 Alpha virt. eigenvalues --    0.89254   0.89510   0.90007   0.90102   0.90199
 Alpha virt. eigenvalues --    0.90973   0.91240   0.91327   0.91588   0.92189
 Alpha virt. eigenvalues --    0.92351   0.92678   0.92921   0.93195   0.93636
 Alpha virt. eigenvalues --    0.94001   0.94570   0.95277   0.95582   0.95759
 Alpha virt. eigenvalues --    0.96045   0.96350   0.96532   0.96747   0.97099
 Alpha virt. eigenvalues --    0.97540   0.98157   0.98371   0.98768   0.99029
 Alpha virt. eigenvalues --    0.99394   0.99598   0.99936   1.00200   1.00891
 Alpha virt. eigenvalues --    1.01229   1.01867   1.02117   1.02625   1.02968
 Alpha virt. eigenvalues --    1.03393   1.03586   1.04004   1.04349   1.04643
 Alpha virt. eigenvalues --    1.05018   1.05245   1.05701   1.06108   1.06676
 Alpha virt. eigenvalues --    1.06732   1.07069   1.07287   1.07527   1.07893
 Alpha virt. eigenvalues --    1.08050   1.08228   1.08832   1.09054   1.09845
 Alpha virt. eigenvalues --    1.10258   1.10312   1.10659   1.10811   1.11312
 Alpha virt. eigenvalues --    1.11529   1.11815   1.11921   1.11991   1.12277
 Alpha virt. eigenvalues --    1.12992   1.13192   1.13580   1.13666   1.14169
 Alpha virt. eigenvalues --    1.14489   1.14985   1.15484   1.15744   1.15932
 Alpha virt. eigenvalues --    1.16135   1.16496   1.16569   1.17345   1.17630
 Alpha virt. eigenvalues --    1.17814   1.18172   1.18554   1.18764   1.18851
 Alpha virt. eigenvalues --    1.19445   1.19647   1.19930   1.20431   1.20691
 Alpha virt. eigenvalues --    1.20827   1.21118   1.21797   1.22213   1.22586
 Alpha virt. eigenvalues --    1.22751   1.22965   1.23097   1.23595   1.24004
 Alpha virt. eigenvalues --    1.24328   1.24507   1.24690   1.25266   1.25453
 Alpha virt. eigenvalues --    1.25776   1.26018   1.26262   1.26363   1.26562
 Alpha virt. eigenvalues --    1.27043   1.27243   1.27411   1.27831   1.28306
 Alpha virt. eigenvalues --    1.28611   1.29040   1.29435   1.29773   1.29941
 Alpha virt. eigenvalues --    1.30340   1.30979   1.31667   1.31962   1.32334
 Alpha virt. eigenvalues --    1.32663   1.33025   1.33307   1.33636   1.34049
 Alpha virt. eigenvalues --    1.34418   1.34678   1.34866   1.35965   1.36181
 Alpha virt. eigenvalues --    1.36680   1.37049   1.37617   1.37829   1.38014
 Alpha virt. eigenvalues --    1.38169   1.38388   1.39119   1.39417   1.39944
 Alpha virt. eigenvalues --    1.40020   1.40762   1.40907   1.41359   1.41614
 Alpha virt. eigenvalues --    1.41964   1.42529   1.42989   1.43770   1.44254
 Alpha virt. eigenvalues --    1.44311   1.44484   1.44697   1.45131   1.45841
 Alpha virt. eigenvalues --    1.46304   1.46522   1.46693   1.47233   1.47461
 Alpha virt. eigenvalues --    1.47696   1.48190   1.48403   1.48657   1.48827
 Alpha virt. eigenvalues --    1.49005   1.49330   1.49932   1.50228   1.50551
 Alpha virt. eigenvalues --    1.51274   1.51417   1.51754   1.52212   1.52359
 Alpha virt. eigenvalues --    1.52677   1.52963   1.53192   1.53452   1.53963
 Alpha virt. eigenvalues --    1.54395   1.54828   1.54901   1.55331   1.55408
 Alpha virt. eigenvalues --    1.55607   1.55969   1.56504   1.56729   1.56957
 Alpha virt. eigenvalues --    1.57457   1.57840   1.57902   1.58164   1.58479
 Alpha virt. eigenvalues --    1.58628   1.58778   1.59117   1.59230   1.59502
 Alpha virt. eigenvalues --    1.59859   1.59977   1.60227   1.60357   1.60707
 Alpha virt. eigenvalues --    1.60842   1.60968   1.61761   1.61926   1.62029
 Alpha virt. eigenvalues --    1.62233   1.62445   1.62790   1.63181   1.63345
 Alpha virt. eigenvalues --    1.63706   1.64181   1.64495   1.64719   1.65110
 Alpha virt. eigenvalues --    1.65204   1.65430   1.65595   1.65988   1.66389
 Alpha virt. eigenvalues --    1.66901   1.67035   1.67278   1.67666   1.67822
 Alpha virt. eigenvalues --    1.68320   1.68549   1.68991   1.69240   1.69460
 Alpha virt. eigenvalues --    1.69836   1.69953   1.70308   1.70367   1.70798
 Alpha virt. eigenvalues --    1.71452   1.72291   1.72389   1.72862   1.72929
 Alpha virt. eigenvalues --    1.73187   1.73335   1.74083   1.74428   1.74769
 Alpha virt. eigenvalues --    1.75036   1.75309   1.75985   1.76308   1.76559
 Alpha virt. eigenvalues --    1.76960   1.77368   1.77625   1.78162   1.78446
 Alpha virt. eigenvalues --    1.78700   1.78934   1.79643   1.80131   1.80584
 Alpha virt. eigenvalues --    1.80826   1.81494   1.82034   1.82300   1.82875
 Alpha virt. eigenvalues --    1.83787   1.84019   1.84536   1.85268   1.85342
 Alpha virt. eigenvalues --    1.85603   1.85806   1.86826   1.87202   1.87477
 Alpha virt. eigenvalues --    1.87578   1.87977   1.88077   1.88514   1.88892
 Alpha virt. eigenvalues --    1.89011   1.89380   1.89643   1.89965   1.90042
 Alpha virt. eigenvalues --    1.90300   1.90723   1.91352   1.91859   1.92038
 Alpha virt. eigenvalues --    1.92230   1.92421   1.92856   1.93110   1.93501
 Alpha virt. eigenvalues --    1.93657   1.94154   1.94455   1.94670   1.94824
 Alpha virt. eigenvalues --    1.94941   1.95404   1.96036   1.96734   1.96865
 Alpha virt. eigenvalues --    1.97074   1.97380   1.97863   1.98402   1.98450
 Alpha virt. eigenvalues --    1.98789   1.99523   1.99679   2.00354   2.00639
 Alpha virt. eigenvalues --    2.00864   2.01096   2.01957   2.02130   2.02682
 Alpha virt. eigenvalues --    2.03240   2.03337   2.03935   2.04085   2.04436
 Alpha virt. eigenvalues --    2.04802   2.05265   2.05438   2.06201   2.06349
 Alpha virt. eigenvalues --    2.06604   2.07321   2.07434   2.07610   2.08148
 Alpha virt. eigenvalues --    2.08739   2.08872   2.09451   2.09712   2.10115
 Alpha virt. eigenvalues --    2.10272   2.10724   2.10785   2.11318   2.11392
 Alpha virt. eigenvalues --    2.11965   2.12007   2.12312   2.12833   2.13024
 Alpha virt. eigenvalues --    2.13774   2.14068   2.14332   2.14955   2.15019
 Alpha virt. eigenvalues --    2.15454   2.15639   2.15856   2.16794   2.17007
 Alpha virt. eigenvalues --    2.17494   2.17859   2.18257   2.18808   2.18875
 Alpha virt. eigenvalues --    2.19110   2.19498   2.19820   2.19979   2.20264
 Alpha virt. eigenvalues --    2.20504   2.20954   2.21142   2.21184   2.21819
 Alpha virt. eigenvalues --    2.21902   2.22272   2.22598   2.22938   2.23106
 Alpha virt. eigenvalues --    2.23928   2.24190   2.24196   2.24576   2.24771
 Alpha virt. eigenvalues --    2.25156   2.25666   2.25998   2.26234   2.26680
 Alpha virt. eigenvalues --    2.27199   2.27598   2.27785   2.28315   2.28588
 Alpha virt. eigenvalues --    2.28627   2.29101   2.29695   2.30066   2.30298
 Alpha virt. eigenvalues --    2.30918   2.31334   2.31754   2.31937   2.32398
 Alpha virt. eigenvalues --    2.32698   2.32803   2.33309   2.33531   2.33893
 Alpha virt. eigenvalues --    2.34335   2.34641   2.35157   2.35463   2.35600
 Alpha virt. eigenvalues --    2.36188   2.36786   2.37002   2.37509   2.37983
 Alpha virt. eigenvalues --    2.38146   2.38596   2.39141   2.39627   2.39903
 Alpha virt. eigenvalues --    2.40381   2.40689   2.40825   2.41285   2.41429
 Alpha virt. eigenvalues --    2.42102   2.42580   2.42612   2.43384   2.43463
 Alpha virt. eigenvalues --    2.43973   2.44149   2.44841   2.44862   2.45241
 Alpha virt. eigenvalues --    2.45787   2.46145   2.46256   2.46629   2.47353
 Alpha virt. eigenvalues --    2.48046   2.48261   2.48656   2.49263   2.49821
 Alpha virt. eigenvalues --    2.50127   2.50299   2.50980   2.51243   2.51968
 Alpha virt. eigenvalues --    2.52101   2.52509   2.53130   2.53624   2.53809
 Alpha virt. eigenvalues --    2.54070   2.54243   2.54603   2.54967   2.55150
 Alpha virt. eigenvalues --    2.55633   2.55671   2.56258   2.56482   2.56834
 Alpha virt. eigenvalues --    2.57262   2.57507   2.57552   2.58165   2.58693
 Alpha virt. eigenvalues --    2.58836   2.59147   2.59235   2.59821   2.60169
 Alpha virt. eigenvalues --    2.60428   2.60625   2.60848   2.60914   2.61024
 Alpha virt. eigenvalues --    2.61282   2.61896   2.62049   2.62396   2.62599
 Alpha virt. eigenvalues --    2.62877   2.63215   2.63374   2.63713   2.64105
 Alpha virt. eigenvalues --    2.64176   2.64557   2.64834   2.65066   2.65223
 Alpha virt. eigenvalues --    2.65951   2.66211   2.66222   2.66621   2.66747
 Alpha virt. eigenvalues --    2.67051   2.67794   2.67897   2.67968   2.68967
 Alpha virt. eigenvalues --    2.69345   2.69459   2.69745   2.70091   2.70208
 Alpha virt. eigenvalues --    2.70439   2.70472   2.70701   2.71107   2.71121
 Alpha virt. eigenvalues --    2.71529   2.71565   2.72052   2.72610   2.73028
 Alpha virt. eigenvalues --    2.73231   2.73841   2.73857   2.74497   2.74688
 Alpha virt. eigenvalues --    2.74831   2.75372   2.75741   2.75936   2.76054
 Alpha virt. eigenvalues --    2.76671   2.76792   2.76991   2.77729   2.78153
 Alpha virt. eigenvalues --    2.78296   2.78653   2.79053   2.79260   2.79754
 Alpha virt. eigenvalues --    2.80232   2.80452   2.80913   2.81134   2.81242
 Alpha virt. eigenvalues --    2.81524   2.81898   2.82018   2.82731   2.83130
 Alpha virt. eigenvalues --    2.83689   2.83993   2.84144   2.84388   2.84510
 Alpha virt. eigenvalues --    2.84768   2.85029   2.85435   2.85639   2.85909
 Alpha virt. eigenvalues --    2.86199   2.86512   2.87095   2.87132   2.87403
 Alpha virt. eigenvalues --    2.87610   2.87828   2.88509   2.88860   2.89365
 Alpha virt. eigenvalues --    2.89462   2.89780   2.90032   2.90066   2.90349
 Alpha virt. eigenvalues --    2.90675   2.90992   2.91190   2.91571   2.92058
 Alpha virt. eigenvalues --    2.92178   2.92376   2.92649   2.92960   2.92984
 Alpha virt. eigenvalues --    2.93166   2.93475   2.93793   2.94290   2.94715
 Alpha virt. eigenvalues --    2.95067   2.95395   2.95883   2.96106   2.96657
 Alpha virt. eigenvalues --    2.96782   2.97352   2.97791   2.98271   2.98624
 Alpha virt. eigenvalues --    2.98795   2.99253   3.00135   3.00693   3.01063
 Alpha virt. eigenvalues --    3.01240   3.01468   3.02256   3.02763   3.02967
 Alpha virt. eigenvalues --    3.03162   3.03482   3.03693   3.04582   3.04790
 Alpha virt. eigenvalues --    3.04996   3.05191   3.05760   3.06319   3.06566
 Alpha virt. eigenvalues --    3.07201   3.07642   3.07930   3.08203   3.08526
 Alpha virt. eigenvalues --    3.08844   3.09023   3.09248   3.09650   3.10391
 Alpha virt. eigenvalues --    3.10695   3.10795   3.11174   3.11297   3.11740
 Alpha virt. eigenvalues --    3.11998   3.12140   3.12739   3.13140   3.13419
 Alpha virt. eigenvalues --    3.13885   3.14143   3.14636   3.15072   3.15412
 Alpha virt. eigenvalues --    3.15839   3.16007   3.16348   3.16485   3.16770
 Alpha virt. eigenvalues --    3.17189   3.17312   3.17675   3.18104   3.18311
 Alpha virt. eigenvalues --    3.18568   3.18649   3.19347   3.19461   3.19688
 Alpha virt. eigenvalues --    3.20046   3.20179   3.20725   3.20998   3.21000
 Alpha virt. eigenvalues --    3.21217   3.21650   3.22023   3.22270   3.22689
 Alpha virt. eigenvalues --    3.22872   3.23404   3.23655   3.23882   3.23996
 Alpha virt. eigenvalues --    3.24276   3.24751   3.25039   3.25054   3.25331
 Alpha virt. eigenvalues --    3.25384   3.25850   3.26159   3.26293   3.26364
 Alpha virt. eigenvalues --    3.26960   3.27138   3.27494   3.27764   3.28127
 Alpha virt. eigenvalues --    3.28363   3.28621   3.29033   3.29483   3.29720
 Alpha virt. eigenvalues --    3.30058   3.30359   3.30728   3.30888   3.31077
 Alpha virt. eigenvalues --    3.31469   3.31687   3.32026   3.32259   3.32496
 Alpha virt. eigenvalues --    3.32725   3.32936   3.33269   3.33338   3.33553
 Alpha virt. eigenvalues --    3.33911   3.34286   3.34740   3.34792   3.35003
 Alpha virt. eigenvalues --    3.35413   3.35679   3.35909   3.36009   3.36677
 Alpha virt. eigenvalues --    3.37114   3.37150   3.37411   3.37733   3.38022
 Alpha virt. eigenvalues --    3.38240   3.38456   3.38816   3.38892   3.39264
 Alpha virt. eigenvalues --    3.39433   3.39668   3.39782   3.40161   3.40368
 Alpha virt. eigenvalues --    3.40726   3.40745   3.41459   3.41484   3.41785
 Alpha virt. eigenvalues --    3.42024   3.42110   3.42639   3.42798   3.42955
 Alpha virt. eigenvalues --    3.43289   3.43546   3.43646   3.43830   3.44037
 Alpha virt. eigenvalues --    3.44204   3.44456   3.44779   3.45091   3.45441
 Alpha virt. eigenvalues --    3.45706   3.46283   3.46306   3.46845   3.47212
 Alpha virt. eigenvalues --    3.47340   3.47670   3.47949   3.48198   3.48523
 Alpha virt. eigenvalues --    3.48834   3.48954   3.49362   3.50002   3.50263
 Alpha virt. eigenvalues --    3.50513   3.50618   3.50943   3.51289   3.51794
 Alpha virt. eigenvalues --    3.51988   3.52119   3.52489   3.53116   3.53477
 Alpha virt. eigenvalues --    3.53625   3.53751   3.53836   3.54252   3.54417
 Alpha virt. eigenvalues --    3.55012   3.55173   3.55271   3.55592   3.55744
 Alpha virt. eigenvalues --    3.56075   3.56644   3.56850   3.57066   3.57292
 Alpha virt. eigenvalues --    3.57634   3.57836   3.58106   3.58965   3.59195
 Alpha virt. eigenvalues --    3.59840   3.60046   3.60176   3.60223   3.61199
 Alpha virt. eigenvalues --    3.61733   3.61802   3.62038   3.62533   3.63492
 Alpha virt. eigenvalues --    3.64153   3.64492   3.64861   3.65171   3.65885
 Alpha virt. eigenvalues --    3.66363   3.66449   3.66613   3.67509   3.67885
 Alpha virt. eigenvalues --    3.68195   3.68670   3.68843   3.69267   3.69646
 Alpha virt. eigenvalues --    3.69919   3.70170   3.70755   3.71209   3.71728
 Alpha virt. eigenvalues --    3.71792   3.72201   3.72842   3.73252   3.73774
 Alpha virt. eigenvalues --    3.74196   3.74772   3.75178   3.75758   3.75996
 Alpha virt. eigenvalues --    3.76543   3.77119   3.77780   3.78272   3.78787
 Alpha virt. eigenvalues --    3.79307   3.79763   3.79919   3.80150   3.80551
 Alpha virt. eigenvalues --    3.81117   3.81925   3.82127   3.82416   3.82543
 Alpha virt. eigenvalues --    3.82990   3.83471   3.83629   3.84220   3.84496
 Alpha virt. eigenvalues --    3.85143   3.85382   3.85450   3.86269   3.86504
 Alpha virt. eigenvalues --    3.87245   3.88523   3.88732   3.89039   3.89673
 Alpha virt. eigenvalues --    3.89806   3.90453   3.91198   3.91358   3.92532
 Alpha virt. eigenvalues --    3.92926   3.93087   3.94154   3.94794   3.95555
 Alpha virt. eigenvalues --    3.95801   3.96193   3.96985   3.97556   3.98223
 Alpha virt. eigenvalues --    3.98890   3.98986   4.00766   4.01000   4.01303
 Alpha virt. eigenvalues --    4.01603   4.02331   4.02525   4.02933   4.03176
 Alpha virt. eigenvalues --    4.03676   4.03711   4.04578   4.04954   4.05747
 Alpha virt. eigenvalues --    4.05846   4.06348   4.06796   4.07293   4.08159
 Alpha virt. eigenvalues --    4.09038   4.09638   4.10148   4.10453   4.11679
 Alpha virt. eigenvalues --    4.11858   4.12782   4.13308   4.13535   4.13975
 Alpha virt. eigenvalues --    4.14102   4.14638   4.15015   4.15214   4.15316
 Alpha virt. eigenvalues --    4.15842   4.15955   4.16363   4.16568   4.16925
 Alpha virt. eigenvalues --    4.17241   4.17786   4.18667   4.18854   4.19299
 Alpha virt. eigenvalues --    4.19561   4.20287   4.20959   4.21324   4.21951
 Alpha virt. eigenvalues --    4.21962   4.22515   4.22676   4.23100   4.23688
 Alpha virt. eigenvalues --    4.23789   4.24120   4.24177   4.24400   4.25153
 Alpha virt. eigenvalues --    4.25716   4.26007   4.26168   4.26368   4.27172
 Alpha virt. eigenvalues --    4.27414   4.28008   4.28311   4.28621   4.28959
 Alpha virt. eigenvalues --    4.29865   4.30433   4.31525   4.31688   4.32211
 Alpha virt. eigenvalues --    4.32312   4.32733   4.33079   4.33684   4.34173
 Alpha virt. eigenvalues --    4.34521   4.34967   4.35073   4.35482   4.36361
 Alpha virt. eigenvalues --    4.36871   4.36919   4.37634   4.38049   4.38937
 Alpha virt. eigenvalues --    4.39205   4.39509   4.40437   4.41430   4.41642
 Alpha virt. eigenvalues --    4.42277   4.43083   4.43502   4.44108   4.44673
 Alpha virt. eigenvalues --    4.44891   4.45289   4.45590   4.45940   4.46029
 Alpha virt. eigenvalues --    4.46922   4.48110   4.48522   4.49179   4.49649
 Alpha virt. eigenvalues --    4.50255   4.50585   4.51205   4.51698   4.52029
 Alpha virt. eigenvalues --    4.52918   4.53457   4.54530   4.54875   4.55352
 Alpha virt. eigenvalues --    4.56043   4.57406   4.57550   4.58192   4.58582
 Alpha virt. eigenvalues --    4.59505   4.60846   4.62037   4.62922   4.63415
 Alpha virt. eigenvalues --    4.64713   4.66308   4.67013   4.67900   4.69033
 Alpha virt. eigenvalues --    4.69737   4.70352   4.71481   4.73345   4.74139
 Alpha virt. eigenvalues --    4.74914   4.75152   4.76496   4.76803   4.77191
 Alpha virt. eigenvalues --    4.78497   4.78967   4.79413   4.79890   4.80731
 Alpha virt. eigenvalues --    4.82101   4.82390   4.83121   4.84224   4.86580
 Alpha virt. eigenvalues --    4.87299   4.87923   4.88468   4.89722   4.90226
 Alpha virt. eigenvalues --    4.91849   4.93716   4.94033   4.94978   4.95670
 Alpha virt. eigenvalues --    4.96208   4.97038   4.98404   4.98797   5.01453
 Alpha virt. eigenvalues --    5.01792   5.02947   5.03426   5.04280   5.05225
 Alpha virt. eigenvalues --    5.06696   5.07111   5.08470   5.08661   5.09328
 Alpha virt. eigenvalues --    5.09726   5.11022   5.11544   5.11910   5.12300
 Alpha virt. eigenvalues --    5.13329   5.14191   5.16351   5.16692   5.17255
 Alpha virt. eigenvalues --    5.17590   5.18979   5.19557   5.20723   5.21540
[...]
    35 H(1)   Bbb    -0.0027    -1.459    -0.521    -0.487  0.4147  0.6525  0.6342
              Bcc     0.0061     3.252     1.160     1.085 -0.6763  0.6873 -0.2650
 
              Baa    -0.0029    -1.563    -0.558    -0.521  0.3999  0.8617 -0.3122
    36 H(1)   Bbb    -0.0022    -1.176    -0.420    -0.392  0.1645  0.2677  0.9494
              Bcc     0.0051     2.739     0.977     0.914  0.9017 -0.4311 -0.0347
 
              Baa    -0.0107    -1.440    -0.514    -0.480  0.0124 -0.3849  0.9229
    37 C(13)  Bbb    -0.0087    -1.172    -0.418    -0.391  0.6824  0.6778  0.2735
              Bcc     0.0195     2.612     0.932     0.871  0.7308 -0.6264 -0.2711
 
              Baa    -0.0076    -4.044    -1.443    -1.349 -0.2366 -0.4132  0.8794
    38 H(1)   Bbb    -0.0055    -2.930    -1.046    -0.978  0.8039  0.4251  0.4160
              Bcc     0.0131     6.974     2.489     2.326 -0.5457  0.8053  0.2316
 
              Baa    -0.0043    -0.573    -0.204    -0.191 -0.0242  0.6829  0.7301
    39 C(13)  Bbb    -0.0038    -0.512    -0.183    -0.171 -0.0331  0.7294 -0.6833
              Bcc     0.0081     1.085     0.387     0.362  0.9992  0.0407 -0.0049
 
              Baa    -0.0037    -1.969    -0.703    -0.657  0.2116  0.8733 -0.4388
    40 H(1)   Bbb    -0.0031    -1.661    -0.593    -0.554 -0.2108  0.4792  0.8520
              Bcc     0.0068     3.629     1.295     1.211  0.9544 -0.0878  0.2855
 
              Baa    -0.0375     2.715     0.969     0.906 -0.1937  0.8980  0.3951
    41 O(17)  Bbb    -0.0118     0.853     0.304     0.285  0.8830 -0.0160  0.4692
              Bcc     0.0493    -3.568    -1.273    -1.190 -0.4277 -0.4397  0.7898
 
              Baa    -0.0215     1.556     0.555     0.519  0.7103  0.3450  0.6135
    42 O(17)  Bbb    -0.0119     0.863     0.308     0.288  0.6865 -0.5319 -0.4958
              Bcc     0.0334    -2.419    -0.863    -0.807  0.1553  0.7734 -0.6147
 
              Baa    -1.3126    62.690    22.370    20.911 -0.2236 -0.4590  0.8599
    43 Ni(61) Bbb     0.2807   -13.408    -4.784    -4.472 -0.6685  0.7142  0.2075
              Bcc     1.0318   -49.283   -17.585   -16.439  0.7094  0.5284  0.4665
 
              Baa    -0.2086   -10.919    -3.896    -3.642 -0.1024  0.6215  0.7767
    44 Cl(35) Bbb    -0.0719    -3.762    -1.343    -1.255  0.8353 -0.3703  0.4064
              Bcc     0.2805    14.681     5.239     4.897  0.5401  0.6904 -0.4812
 
              Baa    -0.0066    -0.884    -0.315    -0.295  0.5165  0.8157  0.2603
    45 C(13)  Bbb    -0.0046    -0.611    -0.218    -0.204  0.5315 -0.5438  0.6494
              Bcc     0.0111     1.495     0.534     0.499 -0.6713  0.1971  0.7145
 
              Baa    -0.0031    -0.414    -0.148    -0.138  0.4499 -0.2932  0.8436
    46 C(13)  Bbb    -0.0027    -0.367    -0.131    -0.122  0.1954  0.9540  0.2274
              Bcc     0.0058     0.781     0.279     0.260  0.8715 -0.0625 -0.4865
 
              Baa    -0.0041    -2.165    -0.773    -0.722  0.4821 -0.5456  0.6855
    47 H(1)   Bbb    -0.0040    -2.135    -0.762    -0.712  0.1290  0.8181  0.5605
              Bcc     0.0081     4.300     1.534     1.434  0.8666  0.1818 -0.4648
 
              Baa    -0.0023    -1.250    -0.446    -0.417 -0.0868  0.8728 -0.4803
    48 H(1)   Bbb    -0.0021    -1.129    -0.403    -0.376  0.2995  0.4826  0.8230
              Bcc     0.0045     2.379     0.849     0.794  0.9501 -0.0724 -0.3033
 
              Baa    -0.0018    -0.963    -0.344    -0.321  0.5599 -0.1505  0.8148
    49 H(1)   Bbb    -0.0018    -0.947    -0.338    -0.316  0.0957  0.9885  0.1169
              Bcc     0.0036     1.910     0.682     0.637  0.8230 -0.0125 -0.5678
 
              Baa    -0.0021    -0.287    -0.102    -0.096  0.1132 -0.5711  0.8130
    50 C(13)  Bbb    -0.0018    -0.243    -0.087    -0.081  0.7257  0.6064  0.3249
              Bcc     0.0039     0.530     0.189     0.177  0.6786 -0.5533 -0.4831
 
              Baa    -0.0018    -0.979    -0.349    -0.326  0.0166 -0.5714  0.8205
    51 H(1)   Bbb    -0.0017    -0.886    -0.316    -0.295  0.7885  0.5121  0.3406
              Bcc     0.0035     1.865     0.665     0.622 -0.6148  0.6413  0.4590
 
              Baa    -0.0013    -0.689    -0.246    -0.230  0.6756  0.2087  0.7071
    52 H(1)   Bbb    -0.0013    -0.684    -0.244    -0.228  0.1732  0.8873 -0.4274
              Bcc     0.0026     1.373     0.490     0.458  0.7166 -0.4112 -0.5634
 
              Baa    -0.0016    -0.855    -0.305    -0.285  0.3590  0.8321 -0.4227
    53 H(1)   Bbb    -0.0014    -0.772    -0.275    -0.257  0.4684  0.2311  0.8528
              Bcc     0.0030     1.627     0.581     0.543  0.8073 -0.5041 -0.3068
 
              Baa    -0.0044    -0.585    -0.209    -0.195  0.2672  0.9505 -0.1586
    54 C(13)  Bbb    -0.0037    -0.498    -0.178    -0.166  0.7914 -0.1226  0.5989
              Bcc     0.0081     1.083     0.386     0.361 -0.5498  0.2855  0.7850
 
              Baa    -0.0069    -3.674    -1.311    -1.226  0.2187  0.9753  0.0308
    55 H(1)   Bbb    -0.0059    -3.127    -1.116    -1.043  0.8336 -0.2031  0.5137
              Bcc     0.0127     6.801     2.427     2.269 -0.5073  0.0867  0.8574
 
              Baa    -0.0023    -1.241    -0.443    -0.414  0.3220  0.9447 -0.0612
    56 H(1)   Bbb    -0.0021    -1.096    -0.391    -0.366  0.7743 -0.2256  0.5913
              Bcc     0.0044     2.337     0.834     0.780 -0.5448  0.2378  0.8041
 
              Baa    -0.0043    -2.316    -0.826    -0.773  0.2666  0.8657 -0.4237
    57 H(1)   Bbb    -0.0037    -1.968    -0.702    -0.656  0.8727 -0.0303  0.4873
              Bcc     0.0080     4.284     1.529     1.429 -0.4090  0.4997  0.7636
 
              Baa    -0.0052    -0.698    -0.249    -0.233  0.0680 -0.0231  0.9974
    58 C(13)  Bbb    -0.0019    -0.249    -0.089    -0.083 -0.6612  0.7476  0.0624
              Bcc     0.0071     0.947     0.338     0.316  0.7472  0.6637 -0.0355
 
              Baa    -0.0025    -0.330    -0.118    -0.110  0.3443 -0.0592  0.9370
    59 C(13)  Bbb    -0.0020    -0.263    -0.094    -0.088 -0.3291  0.9271  0.1795
              Bcc     0.0044     0.593     0.211     0.198  0.8793  0.3701 -0.2997
 
              Baa    -0.0038    -2.049    -0.731    -0.684  0.4401  0.1104  0.8912
    60 H(1)   Bbb    -0.0025    -1.309    -0.467    -0.437 -0.3936  0.9157  0.0809
              Bcc     0.0063     3.359     1.198     1.120  0.8071  0.3863 -0.4464
 
              Baa    -0.0019    -1.003    -0.358    -0.334  0.4674 -0.2241  0.8552
    61 H(1)   Bbb    -0.0017    -0.896    -0.320    -0.299 -0.1132  0.9442  0.3092
              Bcc     0.0036     1.899     0.677     0.633  0.8768  0.2413 -0.4160
 
              Baa    -0.0018    -0.967    -0.345    -0.323  0.3111  0.0429  0.9494
    62 H(1)   Bbb    -0.0014    -0.763    -0.272    -0.255 -0.4242  0.9002  0.0983
              Bcc     0.0032     1.731     0.617     0.577  0.8505  0.4333 -0.2982
 
              Baa    -0.0037    -0.494    -0.176    -0.165 -0.0735 -0.2432  0.9672
    63 C(13)  Bbb    -0.0022    -0.290    -0.104    -0.097 -0.4203  0.8870  0.1911
              Bcc     0.0058     0.785     0.280     0.262  0.9044  0.3925  0.1674
 
              Baa    -0.0029    -1.552    -0.554    -0.518 -0.2434 -0.4320  0.8684
    64 H(1)   Bbb    -0.0019    -1.039    -0.371    -0.346 -0.4148  0.8557  0.3093
              Bcc     0.0049     2.590     0.924     0.864  0.8767  0.2850  0.3875
 
              Baa    -0.0067    -3.572    -1.275    -1.192 -0.0534 -0.2297  0.9718
    65 H(1)   Bbb    -0.0025    -1.351    -0.482    -0.451 -0.4324  0.8825  0.1848
              Bcc     0.0092     4.923     1.757     1.642  0.9001  0.4103  0.1465
 
              Baa    -0.0024    -1.288    -0.460    -0.430 -0.0172 -0.2430  0.9699
    66 H(1)   Bbb    -0.0016    -0.855    -0.305    -0.285 -0.4783  0.8538  0.2054
              Bcc     0.0040     2.143     0.765     0.715  0.8780  0.4604  0.1309
 
              Baa    -0.0016    -0.220    -0.079    -0.073  0.0168 -0.5582  0.8295
    67 C(13)  Bbb    -0.0015    -0.203    -0.072    -0.068 -0.2269  0.8059  0.5469
              Bcc     0.0032     0.423     0.151     0.141  0.9738  0.1974  0.1131
 
              Baa    -0.0012    -0.650    -0.232    -0.217 -0.1874 -0.0022  0.9823
    68 H(1)   Bbb    -0.0011    -0.612    -0.219    -0.204 -0.1330  0.9908 -0.0232
              Bcc     0.0024     1.262     0.450     0.421  0.9732  0.1350  0.1859
 
              Baa    -0.0011    -0.607    -0.217    -0.202  0.0001 -0.0548  0.9985
    69 H(1)   Bbb    -0.0009    -0.492    -0.175    -0.164 -0.3161  0.9473  0.0520
              Bcc     0.0021     1.098     0.392     0.366  0.9487  0.3156  0.0172
 
              Baa    -0.0012    -0.632    -0.226    -0.211  0.1225 -0.4647  0.8769
    70 H(1)   Bbb    -0.0010    -0.550    -0.196    -0.183 -0.0438  0.8802  0.4726
              Bcc     0.0022     1.182     0.422     0.394  0.9915  0.0963 -0.0875
 
              Baa    -0.0045    -0.600    -0.214    -0.200  0.4374 -0.1578  0.8853
    71 C(13)  Bbb     0.0004     0.057     0.020     0.019  0.7968 -0.3884 -0.4629
              Bcc     0.0041     0.544     0.194     0.181  0.4169  0.9079 -0.0442
 
              Baa    -0.0102    -1.370    -0.489    -0.457 -0.4099  0.5538  0.7248
    72 C(13)  Bbb    -0.0075    -1.012    -0.361    -0.337  0.8905  0.4149  0.1867
              Bcc     0.0178     2.382     0.850     0.795 -0.1974  0.7219 -0.6632
 
              Baa    -0.0083    -1.109    -0.396    -0.370  0.6416 -0.5856 -0.4954
    73 C(13)  Bbb    -0.0047    -0.630    -0.225    -0.210  0.7584  0.5812  0.2951
              Bcc     0.0130     1.739     0.620     0.580  0.1151 -0.5650  0.8170
 
              Baa    -0.0048    -0.643    -0.229    -0.214  0.3726 -0.3249  0.8693
    74 C(13)  Bbb     0.0008     0.113     0.040     0.038  0.7291 -0.4770 -0.4908
              Bcc     0.0040     0.531     0.189     0.177  0.5741  0.8166  0.0591
 
              Baa    -0.0020    -1.052    -0.375    -0.351  0.5321  0.0199  0.8464
    75 H(1)   Bbb    -0.0008    -0.425    -0.152    -0.142  0.8451 -0.0743 -0.5295
              Bcc     0.0028     1.477     0.527     0.493  0.0524  0.9970 -0.0564
 
              Baa    -0.0052    -0.696    -0.248    -0.232  0.3952 -0.3760  0.8381
    76 C(13)  Bbb     0.0008     0.109     0.039     0.036 -0.5700  0.6151  0.5447
              Bcc     0.0044     0.587     0.209     0.196  0.7204  0.6930 -0.0288
 
              Baa    -0.0029    -1.551    -0.553    -0.517  0.7462 -0.0690  0.6621
    77 H(1)   Bbb    -0.0018    -0.978    -0.349    -0.326 -0.4516  0.6783  0.5796
              Bcc     0.0047     2.530     0.903     0.844  0.4891  0.7316 -0.4750
 
              Baa    -0.0094    -1.268    -0.452    -0.423  0.6267 -0.5787 -0.5220
    78 C(13)  Bbb    -0.0064    -0.861    -0.307    -0.287  0.7525  0.6235  0.2122
              Bcc     0.0159     2.129     0.760     0.710  0.2026 -0.5257  0.8262
 
              Baa    -0.0010    -0.528    -0.189    -0.176  0.4238 -0.1659  0.8905
    79 H(1)   Bbb    -0.0006    -0.309    -0.110    -0.103  0.8052 -0.3812 -0.4542
              Bcc     0.0016     0.837     0.299     0.279  0.4147  0.9095 -0.0280
 
              Baa    -0.0012    -0.665    -0.237    -0.222  0.6450 -0.3234  0.6924
    80 H(1)   Bbb    -0.0009    -0.481    -0.172    -0.160 -0.3996  0.6296  0.6663
              Bcc     0.0021     1.146     0.409     0.382  0.6514  0.7064 -0.2768
 
              Baa    -0.0007    -0.087    -0.031    -0.029  0.6265 -0.3897  0.6750
    81 C(13)  Bbb    -0.0005    -0.066    -0.024    -0.022 -0.6132  0.2881  0.7355
              Bcc     0.0011     0.153     0.055     0.051  0.4811  0.8747  0.0584
 
              Baa    -0.0006    -0.306    -0.109    -0.102  0.4329 -0.1404  0.8904
    82 H(1)   Bbb    -0.0005    -0.249    -0.089    -0.083  0.8111 -0.3704 -0.4527
              Bcc     0.0010     0.555     0.198     0.185  0.3934  0.9182 -0.0465
 
              Baa    -0.0006    -0.341    -0.122    -0.114  0.7862 -0.5218  0.3309
    83 H(1)   Bbb    -0.0005    -0.256    -0.091    -0.085 -0.3568  0.0539  0.9326
              Bcc     0.0011     0.597     0.213     0.199  0.5045  0.8513  0.1438
 
              Baa    -0.0005    -0.262    -0.093    -0.087  0.7862 -0.5723 -0.2331
    84 H(1)   Bbb    -0.0004    -0.240    -0.086    -0.080  0.1849 -0.1420  0.9724
              Bcc     0.0009     0.502     0.179     0.167  0.5897  0.8076  0.0058
 
              Baa    -0.0111     0.805     0.287     0.269  0.7996 -0.3773 -0.4672
    85 O(17)  Bbb    -0.0097     0.705     0.252     0.235  0.5470  0.7788  0.3070
              Bcc     0.0209    -1.511    -0.539    -0.504  0.2481 -0.5010  0.8291
 
              Baa    -0.0108    -5.789    -2.066    -1.931  0.5308  0.2146  0.8199
    86 H(1)   Bbb    -0.0096    -5.146    -1.836    -1.717 -0.6546  0.7182  0.2358
              Bcc     0.0205    10.935     3.902     3.647  0.5382  0.6619 -0.5217
 
              Baa    -0.0087    -1.173    -0.419    -0.391 -0.6085  0.2128  0.7645
    87 C(13)  Bbb    -0.0015    -0.195    -0.070    -0.065  0.5202  0.8345  0.1819
              Bcc     0.0102     1.369     0.488     0.457  0.5992 -0.5083  0.6185
 
              Baa    -0.0078    -1.046    -0.373    -0.349  0.0859  0.9549  0.2841
    88 C(13)  Bbb    -0.0016    -0.210    -0.075    -0.070  0.9581 -0.1574  0.2393
              Bcc     0.0094     1.256     0.448     0.419 -0.2732 -0.2516  0.9285
 
              Baa    -0.0076    -1.021    -0.364    -0.341  0.4867  0.7141  0.5032
    89 C(13)  Bbb    -0.0046    -0.623    -0.222    -0.208  0.8714 -0.4374 -0.2220
              Bcc     0.0123     1.644     0.587     0.548 -0.0615 -0.5465  0.8352
 
              Baa    -0.0053    -0.714    -0.255    -0.238 -0.3389 -0.0925  0.9363
    90 C(13)  Bbb     0.0007     0.093     0.033     0.031  0.3242  0.9227  0.2085
              Bcc     0.0046     0.621     0.222     0.207  0.8832 -0.3742  0.2827
 
              Baa    -0.0029    -1.565    -0.558    -0.522  0.7242  0.1786 -0.6660
    91 H(1)   Bbb    -0.0017    -0.908    -0.324    -0.303 -0.1098  0.9834  0.1444
              Bcc     0.0046     2.473     0.882     0.825  0.6808 -0.0315  0.7318
 
              Baa    -0.0055    -0.742    -0.265    -0.248 -0.3148 -0.0040  0.9492
    92 C(13)  Bbb     0.0008     0.111     0.040     0.037  0.6161  0.7598  0.2076
              Bcc     0.0047     0.631     0.225     0.211  0.7220 -0.6502  0.2367
 
              Baa    -0.0031    -1.628    -0.581    -0.543 -0.4921  0.3511  0.7966
    93 H(1)   Bbb    -0.0015    -0.819    -0.292    -0.273  0.8320  0.4590  0.3116
              Bcc     0.0046     2.447     0.873     0.816 -0.2562  0.8161 -0.5180
 
              Baa    -0.0069    -0.920    -0.328    -0.307  0.4962  0.8532  0.1607
    94 C(13)  Bbb    -0.0033    -0.443    -0.158    -0.148  0.8588 -0.5095  0.0532
              Bcc     0.0102     1.363     0.486     0.455 -0.1273 -0.1116  0.9856
 
              Baa    -0.0012    -0.650    -0.232    -0.217 -0.5969 -0.4551  0.6608
    95 H(1)   Bbb    -0.0009    -0.466    -0.166    -0.156 -0.0605  0.8468  0.5285
              Bcc     0.0021     1.117     0.398     0.373  0.8000 -0.2754  0.5330
 
              Baa    -0.0011    -0.602    -0.215    -0.201 -0.1831  0.3845  0.9048
    96 H(1)   Bbb    -0.0009    -0.482    -0.172    -0.161  0.8079  0.5833 -0.0844
              Bcc     0.0020     1.084     0.387     0.362 -0.5602  0.7155 -0.4174
 
              Baa    -0.0015    -0.784    -0.280    -0.262  0.4858  0.8540  0.1861
    97 H(1)   Bbb    -0.0007    -0.359    -0.128    -0.120 -0.4376  0.0533  0.8976
              Bcc     0.0021     1.143     0.408     0.381  0.7566 -0.5175  0.3996
 

 ---------------------------------------------------------------------------------

 1\1\GINC-M9-15-2\SP\UM06L\Gen\C41H46Cl1N4Ni2O3(4)\MALLA1\24-Aug-2022\0
 \\#m06l/gen pseudo=read integral=ultrafine temperature=308 scrf=(read)
 \\Title Card Required\\0,4\C,0,2.960467,-0.532391,3.147814\C,0,2.12508
 6,0.293728,3.910244\C,0,0.803101,0.57908,3.454107\C,0,0.430999,0.06664
 5,2.151074\C,0,2.487973,-1.052367,1.926158\H,0,0.048138,1.68415,5.1844
 86\H,0,3.964499,-0.809475,3.500341\H,0,2.461892,0.688078,4.881265\C,0,
 -0.198301,1.279143,4.190777\C,0,-1.779604,0.847563,2.41308\C,0,-1.5063
 3,1.374869,3.688371\H,0,-2.315758,1.824424,4.281654\N,0,-0.792099,0.31
 0515,1.627905\N,0,1.251182,-0.726859,1.419841\C,0,3.151426,-2.076971,1
 .140157\C,0,-3.0839,0.66214,1.795532\N,0,2.606293,-2.579719,0.055537\N
 ,0,-3.209286,-0.001884,0.667239\Ni,0,-1.295255,0.07695,-0.251715\C,0,0
 .158146,1.188056,-1.094878\C,0,0.417633,2.442877,-0.604134\C,0,-1.1743
 37,-0.664266,-2.172503\H,0,-1.949932,-1.406207,-2.41566\C,0,-1.356918,
 0.791632,-2.290153\H,0,-0.658499,1.265822,-3.011841\C,0,0.182937,-1.04
 2933,-1.928696\H,0,0.561611,-1.998733,-2.331193\C,0,1.076305,0.186275,
 -1.77569\H,0,1.435067,0.562501,-2.770264\H,0,-0.437655,2.968442,-0.139
 463\C,0,-5.293724,0.780827,1.472173\H,0,-5.625722,1.729741,1.001609\H,
 0,-6.128646,0.360499,2.06467\C,0,4.484674,-3.833369,0.763383\H,0,4.237
 629,-4.705538,1.404166\H,0,5.550414,-3.891153,0.472137\C,0,3.495128,-3
 .663282,-0.426752\H,0,2.882134,-4.580781,-0.556836\C,0,-4.659149,-0.20
 3116,0.448622\H,0,-4.915255,0.107386,-0.584959\O,0,4.307005,-2.629545,
 1.567885\O,0,-4.209284,1.099708,2.397077\Ni,0,0.565997,-2.03064,0.0118
 73\Cl,0,-0.559116,-3.986086,-0.263026\C,0,4.188854,-3.373689,-1.80426\
 C,0,5.085176,-2.119837,-1.72653\H,0,4.497345,-1.22421,-1.436206\H,0,5.
 915202,-2.235951,-0.998369\H,0,5.544966,-1.913273,-2.715683\C,0,5.0351
 87,-4.611046,-2.18258\H,0,4.406088,-5.524441,-2.246523\H,0,5.511917,-4
 .460511,-3.173598\H,0,5.849798,-4.809202,-1.454625\C,0,3.113243,-3.166
 202,-2.888713\H,0,2.530255,-2.244874,-2.699668\H,0,3.586057,-3.067252,
 -3.888402\H,0,2.404981,-4.020372,-2.929438\C,0,-5.09533,-1.703481,0.60
 7572\C,0,-4.770403,-2.233341,2.020055\H,0,-3.679772,-2.195834,2.219539
 \H,0,-5.29036,-1.660385,2.816825\H,0,-5.089965,-3.292117,2.11546\C,0,-
 4.356443,-2.561578,-0.440622\H,0,-4.5631,-2.202747,-1.471586\H,0,-3.25
 9479,-2.557864,-0.281734\H,0,-4.699065,-3.616148,-0.382231\C,0,-6.6155
 27,-1.794112,0.343915\H,0,-6.875286,-1.4055,-0.664163\H,0,-6.950175,-2
 .85137,0.392841\H,0,-7.211782,-1.228068,1.090481\C,0,1.665785,3.205389
 ,-0.554353\C,0,1.676808,4.439257,0.153422\C,0,2.893088,2.817363,-1.172
 093\C,0,2.822711,5.240831,0.258349\H,0,0.74785,4.778297,0.641395\C,0,4
 .041125,3.605859,-1.076255\H,0,2.949684,1.884941,-1.749334\C,0,4.02522
 9,4.82663,-0.358386\H,0,2.769227,6.184318,0.820032\H,0,4.980698,3.2969
 18,-1.560247\C,0,5.236003,6.757298,0.381752\H,0,4.528466,7.500725,-0.0
 49072\H,0,5.003271,6.62293,1.461876\H,0,6.268129,7.142043,0.280825\O,0
 ,5.198079,5.52177,-0.324031\H,0,1.977494,-0.026567,-1.16498\C,0,-2.682
 311,1.475786,-2.409311\C,0,-3.859047,0.777542,-2.774152\C,0,-2.755166,
 2.887954,-2.29757\C,0,-5.063987,1.463646,-3.007474\H,0,-3.827041,-0.31
 4406,-2.90659\C,0,-3.96329,3.5703,-2.510218\H,0,-1.844742,3.45337,-2.0
 44494\C,0,-5.126465,2.861671,-2.866374\H,0,-5.960612,0.898381,-3.30891
 9\H,0,-3.99413,4.667199,-2.409902\H,0,-6.071776,3.397477,-3.046853\\Ve
 rsion=ES64L-G16RevB.01\State=4-A\HF=-2834.1747711\S2=3.821943\S2-1=0.\
 S2A=3.751599\RMSD=3.755e-09\Dipole=0.4793348,2.6198362,0.7981445\Quadr
 upole=20.5010188,-14.2862356,-6.2147833,-11.6763401,2.7275705,7.642829
 8\PG=C01 [X(C41H46Cl1N4Ni2O3)]\\@


 "WHERE SHALL I START, PLEASE YOUR MAJESTY?" HE ASKED.
 "BEGIN AT THE BEGINNING," THE KING SAID GRAVELY,
 "AND GO ON TILL YOU COME TO THE END: THEN STOP." 

                                      -- LEWIS CARROLL
 Job cpu time:       1 days  8 hours 12 minutes 25.0 seconds.
 Elapsed time:       0 days  2 hours 41 minutes 21.0 seconds.
 File lengths (MBytes):  RWF=   3747 Int=      0 D2E=      0 Chk=    238 Scr=      1
 Normal termination of Gaussian 16 at Wed Aug 24 18:00:25 2022.
