 Entering Gaussian System, Link 0=g16
 Input=Pro_R_E_ts2_4_m06l.com
 Output=Pro_R_E_ts2_4_m06l.log
 Initial command:
 /apps/gaussian16/B.01/AVX2/g16/l1.exe "/tmp/51822061/Gau-31469.inp" -scrdir="/tmp/51822061/"
 Entering Link 1 = /apps/gaussian16/B.01/AVX2/g16/l1.exe PID=     31470.
  
 Copyright (c) 1988-2017, Gaussian, Inc.  All Rights Reserved.
  
 This is part of the Gaussian(R) 16 program.  It is based on
 the Gaussian(R) 09 system (copyright 2009, Gaussian, Inc.),
 the Gaussian(R) 03 system (copyright 2003, Gaussian, Inc.),
 the Gaussian(R) 98 system (copyright 1998, Gaussian, Inc.),
 the Gaussian(R) 94 system (copyright 1995, Gaussian, Inc.),
 the Gaussian 92(TM) system (copyright 1992, Gaussian, Inc.),
 the Gaussian 90(TM) system (copyright 1990, Gaussian, Inc.),
 the Gaussian 88(TM) system (copyright 1988, Gaussian, Inc.),
 the Gaussian 86(TM) system (copyright 1986, Carnegie Mellon
 University), and the Gaussian 82(TM) system (copyright 1983,
 Carnegie Mellon University). Gaussian is a federally registered
 trademark of Gaussian, Inc.
  
 This software contains proprietary and confidential information,
 including trade secrets, belonging to Gaussian, Inc.
  
 This software is provided under written license and may be
 used, copied, transmitted, or stored only in accord with that
 written license.
  
 The following legend is applicable only to US Government
 contracts under FAR:
  
                    RESTRICTED RIGHTS LEGEND
  
 Use, reproduction and disclosure by the US Government is
 subject to restrictions as set forth in subparagraphs (a)
 and (c) of the Commercial Computer Software - Restricted
 Rights clause in FAR 52.227-19.
  
 Gaussian, Inc.
 340 Quinnipiac St., Bldg. 40, Wallingford CT 06492
  
  
 ---------------------------------------------------------------
 Warning -- This program may not be used in any manner that
 competes with the business of Gaussian, Inc. or will provide
 assistance to any competitor of Gaussian, Inc.  The licensee
 of this program is prohibited from giving any competitor of
 Gaussian, Inc. access to this program.  By using this program,
 the user acknowledges that Gaussian, Inc. is engaged in the
 business of creating and licensing software in the field of
 computational chemistry and represents and warrants to the
 licensee that it is not a competitor of Gaussian, Inc. and that
 it will not use this program in any manner prohibited above.
 ---------------------------------------------------------------
  

 Cite this work as:
 Gaussian 16, Revision B.01,
 M. J. Frisch, G. W. Trucks, H. B. Schlegel, G. E. Scuseria, 
 M. A. Robb, J. R. Cheeseman, G. Scalmani, V. Barone, 
 G. A. Petersson, H. Nakatsuji, X. Li, M. Caricato, A. V. Marenich, 
 J. Bloino, B. G. Janesko, R. Gomperts, B. Mennucci, H. P. Hratchian, 
 J. V. Ortiz, A. F. Izmaylov, J. L. Sonnenberg, D. Williams-Young, 
 F. Ding, F. Lipparini, F. Egidi, J. Goings, B. Peng, A. Petrone, 
 T. Henderson, D. Ranasinghe, V. G. Zakrzewski, J. Gao, N. Rega, 
 G. Zheng, W. Liang, M. Hada, M. Ehara, K. Toyota, R. Fukuda, 
 J. Hasegawa, M. Ishida, T. Nakajima, Y. Honda, O. Kitao, H. Nakai, 
 T. Vreven, K. Throssell, J. A. Montgomery, Jr., J. E. Peralta, 
 F. Ogliaro, M. J. Bearpark, J. J. Heyd, E. N. Brothers, K. N. Kudin, 
 V. N. Staroverov, T. A. Keith, R. Kobayashi, J. Normand, 
 K. Raghavachari, A. P. Rendell, J. C. Burant, S. S. Iyengar, 
 J. Tomasi, M. Cossi, J. M. Millam, M. Klene, C. Adamo, R. Cammi, 
 J. W. Ochterski, R. L. Martin, K. Morokuma, O. Farkas, 
 J. B. Foresman, and D. J. Fox, Gaussian, Inc., Wallingford CT, 2016.
 
 ******************************************
 Gaussian 16:  ES64L-G16RevB.01 20-Dec-2017
                24-Aug-2022 
 ******************************************
 %nprocshared=12
 Will use up to   12 processors via shared memory.
 %mem=24GB
 --------------------------------------------------------------------
 #m06l/gen pseudo=read integral=ultrafine temperature=308 scrf=(read)
 --------------------------------------------------------------------
 1/38=1,40=2,112=308000,172=1/1;
 2/12=2,17=6,18=5,40=1/2;
 3/5=7,11=2,16=1,17=8,25=1,30=1,70=2203,74=-53,75=-5/1,2,3;
 4//1;
 5/5=2,38=5/2;
 6/7=2,8=2,9=2,10=2,28=1/1;
 99/5=1,9=1/99;
 -------------------
 Title Card Required
 -------------------
 Symbolic Z-matrix:
 Charge =  0 Multiplicity = 4
 C                     2.40334  -2.50268   2.94019 
 C                     1.44983  -2.22006   3.92694 
 C                     0.2316   -1.57229   3.58142 
 C                     0.04568  -1.19159   2.19284 
 C                     2.14553  -2.09875   1.6171 
 H                    -0.71216  -1.55456   5.55849 
 H                     3.33663  -3.03261   3.17732 
 H                     1.6213   -2.51917   4.97249 
 C                    -0.83438  -1.30132   4.49446 
 C                    -2.16067  -0.47838   2.64609 
 C                    -2.0378   -0.77555   4.01717 
 H                    -2.90032  -0.62035   4.68164 
 N                    -1.1085   -0.61453   1.76347 
 N                     1.00112  -1.4471    1.2692 
 C                     3.00031  -2.38925   0.46888 
 C                    -3.38372  -0.14234   1.95492 
 N                     2.86504  -1.79891  -0.68888 
 N                    -3.39887  -0.02433   0.64142 
 Ni                   -1.47796   0.22846   0.00666 
 C                     0.32557   0.86442  -0.05326 
 C                     0.77491   1.88614   0.72381 
 C                    -1.36048   0.38698  -2.59524 
 H                    -2.10739  -0.25438  -3.09132 
 C                    -1.81312   1.44811  -1.75346 
 H                    -1.05344   2.19179  -1.45965 
 C                    -0.00168   0.05291  -2.76909 
 H                     0.25055  -0.84505  -3.35232 
 C                     1.03534   0.7678   -2.08572 
 H                     0.9394    1.85758  -1.96081 
 H                     0.02327   2.31263   1.42199 
 C                    -5.52493   0.34931   1.56314 
 H                    -5.70355   1.4419    1.6498 
 H                    -6.46709  -0.19229   1.76786 
 C                     4.28673  -3.70114  -0.80146 
 H                     3.78015  -4.64433  -1.09274 
 H                     5.38119  -3.86108  -0.81369 
 C                     3.80079  -2.4741   -1.62819 
 H                     3.20939  -2.81072  -2.50692 
 C                    -4.82367  -0.03253   0.23604 
 H                    -5.00065   0.7428   -0.53499 
 O                     3.89448  -3.39729   0.56804 
 O                    -4.56151  -0.02708   2.5993 
 Ni                    0.78402  -0.92789  -0.66199 
 Cl                   -0.06433  -3.00403  -1.40092 
 C                     4.9768   -1.586    -2.17087 
 C                     5.88889  -1.09972  -1.02434 
 H                     5.31578  -0.51671  -0.27373 
 H                     6.38977  -1.93707  -0.49529 
 H                     6.68937  -0.44152  -1.42238 
 C                     5.79027  -2.4447   -3.16853 
 H                     5.15512  -2.79277  -4.01087 
 H                     6.62161  -1.84739  -3.59739 
 H                     6.24257  -3.33947  -2.69226 
 C                     4.42483  -0.36538  -2.93277 
 H                     3.95534   0.36383  -2.24425 
 H                     5.2472    0.16577  -3.45608 
 H                     3.67568  -0.66349  -3.6962 
 C                    -5.26786  -1.41874  -0.36449 
 C                    -5.1273   -2.558     0.6684 
 H                    -4.07355  -2.68184   0.99283 
 H                    -5.75331  -2.39558   1.57055 
 H                    -5.44652  -3.5203    0.21625 
 C                    -4.39752  -1.74757  -1.59515 
 H                    -4.49998  -0.96548  -2.37498 
 H                    -3.32449  -1.83471  -1.32863 
 H                    -4.71543  -2.71303  -2.04175 
 C                    -6.74159  -1.2937   -0.81289 
 H                    -6.86945  -0.47626  -1.55398 
 H                    -7.07861  -2.23794  -1.2894 
 H                    -7.42827  -1.09356   0.03679 
 C                     2.08181   2.55271   0.75844 
 C                     2.21141   3.82698   1.36663 
 C                     3.26152   1.96803   0.21865 
 C                     3.43813   4.50866   1.41705 
 H                     1.32045   4.30274   1.80935 
 C                     4.48786   2.63354   0.26244 
 H                     3.20607   0.95367  -0.20646 
 C                     4.59177   3.91628   0.85528 
 H                     3.48497   5.49679   1.89645 
 H                     5.39952   2.17231  -0.14785 
 C                     5.99781   5.76596   1.44198 
 H                     5.3755    6.53885   0.93777 
 H                     5.74701   5.75297   2.52633 
 H                     7.06552   6.02898   1.32242 
 O                     5.83194   4.48376   0.84649 
 H                     2.07291   0.45255  -2.26814 
 C                    -3.16114   2.06231  -1.8409 
 C                    -4.08846   1.75267  -2.86848 
 C                    -3.52578   3.07074  -0.90946 
 C                    -5.33367   2.40129  -2.94334 
 H                    -3.82152   1.01508  -3.64078 
 C                    -4.76893   3.7163   -0.98078 
 H                    -2.81389   3.34029  -0.11191 
 C                    -5.68595   3.38007  -1.99649 
 H                    -6.03043   2.14597  -3.75795 
 H                    -5.02446   4.49298  -0.24191 
 H                    -6.66097   3.88885  -2.05759 
 
 Stoichiometry    C41H46ClN4Ni2O3(4)
 Framework group  C1[X(C41H46ClN4Ni2O3)]
 Deg. of freedom   285
 Full point group                 C1      NOp   1
 Largest Abelian subgroup         C1      NOp   1
 Largest concise Abelian subgroup C1      NOp   1
                         Standard orientation:                         
 ---------------------------------------------------------------------
 Center     Atomic      Atomic             Coordinates (Angstroms)
 Number     Number       Type             X           Y           Z
 ---------------------------------------------------------------------
      1          6           0        2.403335   -2.502676    2.940191
      2          6           0        1.449833   -2.220061    3.926937
      3          6           0        0.231599   -1.572290    3.581422
      4          6           0        0.045675   -1.191586    2.192837
      5          6           0        2.145527   -2.098747    1.617101
      6          1           0       -0.712164   -1.554562    5.558493
      7          1           0        3.336634   -3.032606    3.177318
      8          1           0        1.621302   -2.519173    4.972491
      9          6           0       -0.834384   -1.301320    4.494464
     10          6           0       -2.160665   -0.478376    2.646089
     11          6           0       -2.037796   -0.775547    4.017167
     12          1           0       -2.900321   -0.620348    4.681644
     13          7           0       -1.108499   -0.614530    1.763472
     14          7           0        1.001117   -1.447095    1.269199
     15          6           0        3.000310   -2.389254    0.468876
     16          6           0       -3.383720   -0.142338    1.954916
     17          7           0        2.865038   -1.798911   -0.688881
     18          7           0       -3.398866   -0.024334    0.641423
     19         28           0       -1.477961    0.228457    0.006657
     20          6           0        0.325574    0.864422   -0.053257
     21          6           0        0.774912    1.886144    0.723806
     22          6           0       -1.360478    0.386983   -2.595236
     23          1           0       -2.107387   -0.254384   -3.091318
     24          6           0       -1.813115    1.448108   -1.753457
     25          1           0       -1.053440    2.191792   -1.459651
     26          6           0       -0.001678    0.052914   -2.769087
     27          1           0        0.250548   -0.845045   -3.352325
     28          6           0        1.035344    0.767804   -2.085717
     29          1           0        0.939401    1.857579   -1.960807
     30          1           0        0.023274    2.312632    1.421991
     31          6           0       -5.524929    0.349313    1.563143
     32          1           0       -5.703552    1.441896    1.649797
     33          1           0       -6.467088   -0.192291    1.767861
     34          6           0        4.286726   -3.701136   -0.801461
     35          1           0        3.780149   -4.644329   -1.092742
     36          1           0        5.381185   -3.861084   -0.813692
     37          6           0        3.800787   -2.474098   -1.628193
     38          1           0        3.209393   -2.810715   -2.506918
     39          6           0       -4.823665   -0.032528    0.236037
     40          1           0       -5.000647    0.742799   -0.534991
     41          8           0        3.894481   -3.397294    0.568043
     42          8           0       -4.561507   -0.027079    2.599302
     43         28           0        0.784017   -0.927885   -0.661994
     44         17           0       -0.064334   -3.004028   -1.400921
     45          6           0        4.976804   -1.586000   -2.170871
     46          6           0        5.888894   -1.099720   -1.024344
     47          1           0        5.315778   -0.516714   -0.273729
     48          1           0        6.389768   -1.937068   -0.495288
     49          1           0        6.689370   -0.441517   -1.422378
     50          6           0        5.790268   -2.444701   -3.168528
     51          1           0        5.155117   -2.792765   -4.010873
     52          1           0        6.621606   -1.847392   -3.597394
     53          1           0        6.242574   -3.339465   -2.692261
     54          6           0        4.424835   -0.365381   -2.932772
     55          1           0        3.955342    0.363828   -2.244251
     56          1           0        5.247197    0.165766   -3.456081
     57          1           0        3.675681   -0.663485   -3.696203
     58          6           0       -5.267861   -1.418742   -0.364488
     59          6           0       -5.127302   -2.557997    0.668397
     60          1           0       -4.073548   -2.681839    0.992834
     61          1           0       -5.753305   -2.395580    1.570550
     62          1           0       -5.446519   -3.520298    0.216251
     63          6           0       -4.397522   -1.747570   -1.595147
     64          1           0       -4.499980   -0.965483   -2.374979
     65          1           0       -3.324494   -1.834708   -1.328634
     66          1           0       -4.715430   -2.713033   -2.041749
     67          6           0       -6.741590   -1.293703   -0.812885
     68          1           0       -6.869446   -0.476258   -1.553983
     69          1           0       -7.078609   -2.237941   -1.289401
     70          1           0       -7.428267   -1.093564    0.036789
     71          6           0        2.081808    2.552708    0.758444
     72          6           0        2.211405    3.826984    1.366629
     73          6           0        3.261516    1.968031    0.218654
     74          6           0        3.438128    4.508660    1.417045
     75          1           0        1.320449    4.302735    1.809345
     76          6           0        4.487859    2.633539    0.262444
     77          1           0        3.206069    0.953666   -0.206460
     78          6           0        4.591765    3.916283    0.855279
     79          1           0        3.484966    5.496793    1.896450
     80          1           0        5.399519    2.172307   -0.147854
     81          6           0        5.997807    5.765963    1.441978
     82          1           0        5.375500    6.538854    0.937769
     83          1           0        5.747007    5.752966    2.526334
     84          1           0        7.065517    6.028981    1.322424
     85          8           0        5.831941    4.483762    0.846488
     86          1           0        2.072910    0.452547   -2.268136
     87          6           0       -3.161141    2.062310   -1.840901
     88          6           0       -4.088457    1.752667   -2.868476
     89          6           0       -3.525777    3.070737   -0.909457
     90          6           0       -5.333673    2.401292   -2.943341
     91          1           0       -3.821519    1.015078   -3.640781
     92          6           0       -4.768930    3.716300   -0.980776
     93          1           0       -2.813889    3.340292   -0.111910
     94          6           0       -5.685950    3.380074   -1.996486
     95          1           0       -6.030431    2.145974   -3.757948
     96          1           0       -5.024461    4.492983   -0.241907
     97          1           0       -6.660968    3.888853   -2.057592
 ---------------------------------------------------------------------
 Rotational constants (GHZ):           0.0743912           0.0401792           0.0364172
 General basis read from cards:  (5D, 7F)
 ======================================================================================================
                                       Pseudopotential Parameters
 ======================================================================================================
  Center     Atomic      Valence      Angular      Power
  Number     Number     Electrons     Momentum     of R      Exponent        Coefficient   SO-Coeffient
 ======================================================================================================
    1          6
                                   No pseudopotential on this center.
    2          6
                                   No pseudopotential on this center.
    3          6
                                   No pseudopotential on this center.
    4          6
                                   No pseudopotential on this center.
    5          6
                                   No pseudopotential on this center.
    6          1
                                   No pseudopotential on this center.
    7          1
                                   No pseudopotential on this center.
    8          1
                                   No pseudopotential on this center.
    9          6
                                   No pseudopotential on this center.
   10          6
                                   No pseudopotential on this center.
   11          6
                                   No pseudopotential on this center.
   12          1
                                   No pseudopotential on this center.
   13          7
                                   No pseudopotential on this center.
   14          7
                                   No pseudopotential on this center.
   15          6
                                   No pseudopotential on this center.
   16          6
                                   No pseudopotential on this center.
   17          7
                                   No pseudopotential on this center.
   18          7
                                   No pseudopotential on this center.
   19         28           18
                                      D and up 
                                                     1      469.9324331      -10.00000000    0.00000000
                                                     2       85.4236411      -69.40848050    0.00000000
                                                     2       21.2674984      -12.09510200    0.00000000
                                      S - D
                                                     0      162.1686097        3.00000000    0.00000000
                                                     1      176.5333232       22.02536180    0.00000000
                                                     2       68.9562010      443.01810880    0.00000000
                                                     2       13.5792838      145.56964110    0.00000000
                                      P - D
                                                     0       69.0181506        5.00000000    0.00000000
                                                     1      275.5955596        4.98828240    0.00000000
                                                     2       47.1315453      256.69458530    0.00000000
                                                     2       12.9874075       78.47544500    0.00000000
   20          6
                                   No pseudopotential on this center.
   21          6
                                   No pseudopotential on this center.
   22          6
                                   No pseudopotential on this center.
   23          1
                                   No pseudopotential on this center.
   24          6
                                   No pseudopotential on this center.
   25          1
                                   No pseudopotential on this center.
   26          6
                                   No pseudopotential on this center.
   27          1
                                   No pseudopotential on this center.
   28          6
                                   No pseudopotential on this center.
   29          1
                                   No pseudopotential on this center.
   30          1
                                   No pseudopotential on this center.
   31          6
                                   No pseudopotential on this center.
   32          1
                                   No pseudopotential on this center.
   33          1
                                   No pseudopotential on this center.
   34          6
                                   No pseudopotential on this center.
   35          1
                                   No pseudopotential on this center.
   36          1
                                   No pseudopotential on this center.
   37          6
                                   No pseudopotential on this center.
   38          1
                                   No pseudopotential on this center.
   39          6
                                   No pseudopotential on this center.
   40          1
                                   No pseudopotential on this center.
   41          8
                                   No pseudopotential on this center.
   42          8
                                   No pseudopotential on this center.
   43         28           18
                                      D and up 
                                                     1      469.9324331      -10.00000000    0.00000000
                                                     2       85.4236411      -69.40848050    0.00000000
                                                     2       21.2674984      -12.09510200    0.00000000
                                      S - D
                                                     0      162.1686097        3.00000000    0.00000000
                                                     1      176.5333232       22.02536180    0.00000000
                                                     2       68.9562010      443.01810880    0.00000000
                                                     2       13.5792838      145.56964110    0.00000000
                                      P - D
                                                     0       69.0181506        5.00000000    0.00000000
                                                     1      275.5955596        4.98828240    0.00000000
                                                     2       47.1315453      256.69458530    0.00000000
                                                     2       12.9874075       78.47544500    0.00000000
   44         17
                                   No pseudopotential on this center.
   45          6
                                   No pseudopotential on this center.
   46          6
                                   No pseudopotential on this center.
   47          1
                                   No pseudopotential on this center.
   48          1
                                   No pseudopotential on this center.
   49          1
                                   No pseudopotential on this center.
   50          6
                                   No pseudopotential on this center.
   51          1
                                   No pseudopotential on this center.
   52          1
                                   No pseudopotential on this center.
   53          1
                                   No pseudopotential on this center.
   54          6
                                   No pseudopotential on this center.
   55          1
                                   No pseudopotential on this center.
   56          1
                                   No pseudopotential on this center.
   57          1
                                   No pseudopotential on this center.
   58          6
                                   No pseudopotential on this center.
   59          6
                                   No pseudopotential on this center.
   60          1
                                   No pseudopotential on this center.
   61          1
                                   No pseudopotential on this center.
   62          1
                                   No pseudopotential on this center.
   63          6
                                   No pseudopotential on this center.
   64          1
                                   No pseudopotential on this center.
   65          1
                                   No pseudopotential on this center.
   66          1
                                   No pseudopotential on this center.
   67          6
                                   No pseudopotential on this center.
   68          1
                                   No pseudopotential on this center.
   69          1
                                   No pseudopotential on this center.
   70          1
                                   No pseudopotential on this center.
   71          6
                                   No pseudopotential on this center.
   72          6
                                   No pseudopotential on this center.
   73          6
                                   No pseudopotential on this center.
   74          6
                                   No pseudopotential on this center.
   75          1
                                   No pseudopotential on this center.
   76          6
                                   No pseudopotential on this center.
   77          1
                                   No pseudopotential on this center.
   78          6
                                   No pseudopotential on this center.
   79          1
                                   No pseudopotential on this center.
   80          1
                                   No pseudopotential on this center.
   81          6
                                   No pseudopotential on this center.
   82          1
                                   No pseudopotential on this center.
   83          1
                                   No pseudopotential on this center.
   84          1
                                   No pseudopotential on this center.
   85          8
                                   No pseudopotential on this center.
   86          1
                                   No pseudopotential on this center.
   87          6
                                   No pseudopotential on this center.
   88          6
                                   No pseudopotential on this center.
   89          6
                                   No pseudopotential on this center.
   90          6
                                   No pseudopotential on this center.
   91          1
                                   No pseudopotential on this center.
   92          6
                                   No pseudopotential on this center.
   93          1
                                   No pseudopotential on this center.
   94          6
                                   No pseudopotential on this center.
   95          1
                                   No pseudopotential on this center.
   96          1
                                   No pseudopotential on this center.
   97          1
                                   No pseudopotential on this center.
 ======================================================================================================
 There are  2094 symmetry adapted cartesian basis functions of A   symmetry.
 There are  1845 symmetry adapted basis functions of A   symmetry.
  1845 basis functions,  2989 primitive gaussians,  2094 cartesian basis functions
   200 alpha electrons      197 beta electrons
       nuclear repulsion energy      8381.5373460252 Hartrees.
 NAtoms=   97 NActive=   97 NUniq=   97 SFac= 1.00D+00 NAtFMM=   60 NAOKFM=T Big=T
 Integral buffers will be    131072 words long.
 Raffenetti 2 integral format.
 Two-electron integral symmetry is turned on.
 Using the following non-standard input for PCM:
 Eps=4.5
 --- end of non-standard input.
 ------------------------------------------------------------------------------
 Polarizable Continuum Model (PCM)
 =================================
 Model                : PCM.
 Atomic radii         : UFF (Universal Force Field).
 Polarization charges : Total charges.
 Charge compensation  : None.
 Solution method      : On-the-fly selection.
 Cavity type          : Scaled VdW (van der Waals Surface) (Alpha=1.100).
 Cavity algorithm     : GePol (No added spheres)
                        Default sphere list used, NSphG=   97.
                        Lebedev-Laikov grids with approx.  5.0 points / Ang**2.
                        Smoothing algorithm: York/Karplus (Gamma=1.0000).
                        Polarization charges: spherical gaussians, with
                                              point-specific exponents (IZeta= 3).
                        Self-potential: point-specific (ISelfS= 7).
                        Self-field    : sphere-specific E.n sum rule (ISelfD= 2).
 Solvent              : Water, Eps=   4.500000 Eps(inf)=   1.777849
 ------------------------------------------------------------------------------
 One-electron integrals computed using PRISM.
   1 Symmetry operations used in ECPInt.
 ECPInt:  NShTT=  274911 NPrTT=  843013 LenC2=  200255 LenP2D=  401755.
 LDataN:  DoStor=T MaxTD1= 6 Len=  172
 NBasis=  1845 RedAO= T EigKep=  6.93D-06  NBF=  1845
 NBsUse=  1845 1.00D-06 EigRej= -1.00D+00 NBFU=  1845
 ExpMin= 2.40D-02 ExpMax= 6.95D+04 ExpMxC= 2.37D+03 IAcc=3 IRadAn=         5 AccDes= 0.00D+00
 Harris functional with IExCor= 1009 and IRadAn=       5 diagonalized for initial guess.
 HarFok:  IExCor= 1009 AccDes= 0.00D+00 IRadAn=         5 IDoV= 1 UseB2=F ITyADJ=14
 ICtDFT=  3500011 ScaDFX=  1.000000  1.000000  1.000000  1.000000
 FoFCou: FMM=F IPFlag=           0 FMFlag=      100000 FMFlg1=        2001
         NFxFlg=           0 DoJE=T BraDBF=F KetDBF=T FulRan=T
         wScrn=  0.000000 ICntrl=       500 IOpCl=  0 I1Cent=   200000004 NGrid=           0
         NMat0=    1 NMatS0=      1 NMatT0=    0 NMatD0=    1 NMtDS0=    0 NMtDT0=    0
 Petite list used in FoFCou.
 Initial guess <Sx>= 0.0000 <Sy>= 0.0000 <Sz>= 1.5000 <S**2>= 3.7500 S= 1.5000
 Requested convergence on RMS density matrix=1.00D-08 within 128 cycles.
 Requested convergence on MAX density matrix=1.00D-06.
 Requested convergence on             energy=1.00D-06.
 No special actions if energy rises.
 Inv3:  Mode=1 IEnd=   106457547.
 Iteration    1 A*A^-1 deviation from unit magnitude is 3.89D-15 for    225.
 Iteration    1 A*A^-1 deviation from orthogonality  is 3.31D-15 for   5365   4248.
 Iteration    1 A^-1*A deviation from unit magnitude is 3.66D-15 for    225.
 Iteration    1 A^-1*A deviation from orthogonality  is 4.14D-15 for   5261   5205.
 EnCoef did    12 forward-backward iterations
 EnCoef did     7 forward-backward iterations
 EnCoef did    16 forward-backward iterations
 EnCoef did    13 forward-backward iterations
 EnCoef did     6 forward-backward iterations
 EnCoef did     8 forward-backward iterations
 EnCoef did     9 forward-backward iterations
 EnCoef did     5 forward-backward iterations
 Restarting incremental Fock formation.
 Error on total polarization charges =  0.01780
 SCF Done:  E(UM06L) =  -2834.17622565     A.U. after   31 cycles
            NFock= 31  Conv=0.29D-08     -V/T= 2.0517
 <Sx>= 0.0000 <Sy>= 0.0000 <Sz>= 1.5000 <S**2>= 3.8319 S= 1.5204
 <L.S>=  0.00000000000    
 Annihilation of the first spin contaminant:
 S**2 before annihilation     3.8319,   after     3.7523

 **********************************************************************

            Population analysis using the SCF Density.

 **********************************************************************

 Orbital symmetries:
 Alpha Orbitals:
       Occupied  (A) (A) (A) (A) (A) (A) (A) (A) (A) (A) (A) (A)
                 (A) (A) (A) (A) (A) (A) (A) (A) (A) (A) (A) (A)
                 (A) (A) (A) (A) (A) (A) (A) (A) (A) (A) (A) (A)
                 (A) (A) (A) (A) (A) (A) (A) (A) (A) (A) (A) (A)
                 (A) (A) (A) (A) (A) (A) (A) (A) (A) (A) (A) (A)
                 (A) (A) (A) (A) (A) (A) (A) (A) (A) (A) (A) (A)
                 (A) (A) (A) (A) (A) (A) (A) (A) (A) (A) (A) (A)
                 (A) (A) (A) (A) (A) (A) (A) (A) (A) (A) (A) (A)
                 (A) (A) (A) (A) (A) (A) (A) (A) (A) (A) (A) (A)
                 (A) (A) (A) (A) (A) (A) (A) (A) (A) (A) (A) (A)
                 (A) (A) (A) (A) (A) (A) (A) (A) (A) (A) (A) (A)
                 (A) (A) (A) (A) (A) (A) (A) (A) (A) (A) (A) (A)
                 (A) (A) (A) (A) (A) (A) (A) (A) (A) (A) (A) (A)
                 (A) (A) (A) (A) (A) (A) (A) (A) (A) (A) (A) (A)
                 (A) (A) (A) (A) (A) (A) (A) (A) (A) (A) (A) (A)
                 (A) (A) (A) (A) (A) (A) (A) (A) (A) (A) (A) (A)
                 (A) (A) (A) (A) (A) (A) (A) (A)
       Virtual   (A) (A) (A) (A) (A) (A) (A) (A) (A) (A) (A) (A)
                 (A) (A) (A) (A) (A) (A) (A) (A) (A) (A) (A) (A)
                 (A) (A) (A) (A) (A) (A) (A) (A) (A) (A) (A) (A)
                 (A) (A) (A) (A) (A) (A) (A) (A) (A) (A) (A) (A)
                 (A) (A) (A) (A) (A) (A) (A) (A) (A) (A) (A) (A)
                 (A) (A) (A) (A) (A) (A) (A) (A) (A) (A) (A) (A)
                 (A) (A) (A) (A) (A) (A) (A) (A) (A) (A) (A) (A)
                 (A) (A) (A) (A) (A) (A) (A) (A) (A) (A) (A) (A)
                 (A) (A) (A) (A) (A) (A) (A) (A) (A) (A) (A) (A)
                 (A) (A) (A) (A) (A) (A) (A) (A) (A) (A) (A) (A)
                 (A) (A) (A) (A) (A) (A) (A) (A) (A) (A) (A) (A)
                 (A) (A) (A) (A) (A) (A) (A) (A) (A) (A) (A) (A)
                 (A) (A) (A) (A) (A) (A) (A) (A) (A) (A) (A) (A)
                 (A) (A) (A) (A) (A) (A) (A) (A) (A) (A) (A) (A)
                 (A) (A) (A) (A) (A) (A) (A) (A) (A) (A) (A) (A)
                 (A) (A) (A) (A) (A) (A) (A) (A) (A) (A) (A) (A)
                 (A) (A) (A) (A) (A) (A) (A) (A) (A) (A) (A) (A)
                 (A) (A) (A) (A) (A) (A) (A) (A) (A) (A) (A) (A)
                 (A) (A) (A) (A) (A) (A) (A) (A) (A) (A) (A) (A)
                 (A) (A) (A) (A) (A) (A) (A) (A) (A) (A) (A) (A)
                 (A) (A) (A) (A) (A) (A) (A) (A) (A) (A) (A) (A)
                 (A) (A) (A) (A) (A) (A) (A) (A) (A) (A) (A) (A)
                 (A) (A) (A) (A) (A) (A) (A) (A) (A) (A) (A) (A)
                 (A) (A) (A) (A) (A) (A) (A) (A) (A) (A) (A) (A)
                 (A) (A) (A) (A) (A) (A) (A) (A) (A) (A) (A) (A)
                 (A) (A) (A) (A) (A) (A) (A) (A) (A) (A) (A) (A)
                 (A) (A) (A) (A) (A) (A) (A) (A) (A) (A) (A) (A)
                 (A) (A) (A) (A) (A) (A) (A) (A) (A) (A) (A) (A)
                 (A) (A) (A) (A) (A) (A) (A) (A) (A) (A) (A) (A)
                 (A) (A) (A) (A) (A) (A) (A) (A) (A) (A) (A) (A)
                 (A) (A) (A) (A) (A) (A) (A) (A) (A) (A) (A) (A)
                 (A) (A) (A) (A) (A) (A) (A) (A) (A) (A) (A) (A)
                 (A) (A) (A) (A) (A) (A) (A) (A) (A) (A) (A) (A)
                 (A) (A) (A) (A) (A) (A) (A) (A) (A) (A) (A) (A)
                 (A) (A) (A) (A) (A) (A) (A) (A) (A) (A) (A) (A)
                 (A) (A) (A) (A) (A) (A) (A) (A) (A) (A) (A) (A)
                 (A) (A) (A) (A) (A) (A) (A) (A) (A) (A) (A) (A)
                 (A) (A) (A) (A) (A) (A) (A) (A) (A) (A) (A) (A)
                 (A) (A) (A) (A) (A) (A) (A) (A) (A) (A) (A) (A)
                 (A) (A) (A) (A) (A) (A) (A) (A) (A) (A) (A) (A)
                 (A) (A) (A) (A) (A) (A) (A) (A) (A) (A) (A) (A)
                 (A) (A) (A) (A) (A) (A) (A) (A) (A) (A) (A) (A)
                 (A) (A) (A) (A) (A) (A) (A) (A) (A) (A) (A) (A)
                 (A) (A) (A) (A) (A) (A) (A) (A) (A) (A) (A) (A)
                 (A) (A) (A) (A) (A) (A) (A) (A) (A) (A) (A) (A)
                 (A) (A) (A) (A) (A) (A) (A) (A) (A) (A) (A) (A)
                 (A) (A) (A) (A) (A) (A) (A) (A) (A) (A) (A) (A)
                 (A) (A) (A) (A) (A) (A) (A) (A) (A) (A) (A) (A)
                 (A) (A) (A) (A) (A) (A) (A) (A) (A) (A) (A) (A)
                 (A) (A) (A) (A) (A) (A) (A) (A) (A) (A) (A) (A)
                 (A) (A) (A) (A) (A) (A) (A) (A) (A) (A) (A) (A)
                 (A) (A) (A) (A) (A) (A) (A) (A) (A) (A) (A) (A)
                 (A) (A) (A) (A) (A) (A) (A) (A) (A) (A) (A) (A)
                 (A) (A) (A) (A) (A) (A) (A) (A) (A) (A) (A) (A)
                 (A) (A) (A) (A) (A) (A) (A) (A) (A) (A) (A) (A)
                 (A) (A) (A) (A) (A) (A) (A) (A) (A) (A) (A) (A)
                 (A) (A) (A) (A) (A) (A) (A) (A) (A) (A) (A) (A)
                 (A) (A) (A) (A) (A) (A) (A) (A) (A) (A) (A) (A)
                 (A) (A) (A) (A) (A) (A) (A) (A) (A) (A) (A) (A)
                 (A) (A) (A) (A) (A) (A) (A) (A) (A) (A) (A) (A)
                 (A) (A) (A) (A) (A) (A) (A) (A) (A) (A) (A) (A)
                 (A) (A) (A) (A) (A) (A) (A) (A) (A) (A) (A) (A)
                 (A) (A) (A) (A) (A) (A) (A) (A) (A) (A) (A) (A)
                 (A) (A) (A) (A) (A) (A) (A) (A) (A) (A) (A) (A)
                 (A) (A) (A) (A) (A) (A) (A) (A) (A) (A) (A) (A)
                 (A) (A) (A) (A) (A) (A) (A) (A) (A) (A) (A) (A)
                 (A) (A) (A) (A) (A) (A) (A) (A) (A) (A) (A) (A)
                 (A) (A) (A) (A) (A) (A) (A) (A) (A) (A) (A) (A)
                 (A) (A) (A) (A) (A) (A) (A) (A) (A) (A) (A) (A)
                 (A) (A) (A) (A) (A) (A) (A) (A) (A) (A) (A) (A)
                 (A) (A) (A) (A) (A) (A) (A) (A) (A) (A) (A) (A)
                 (A) (A) (A) (A) (A) (A) (A) (A) (A) (A) (A) (A)
                 (A) (A) (A) (A) (A) (A) (A) (A) (A) (A) (A) (A)
                 (A) (A) (A) (A) (A) (A) (A) (A) (A) (A) (A) (A)
                 (A) (A) (A) (A) (A) (A) (A) (A) (A) (A) (A) (A)
                 (A) (A) (A) (A) (A) (A) (A) (A) (A) (A) (A) (A)
                 (A) (A) (A) (A) (A) (A) (A) (A) (A) (A) (A) (A)
                 (A) (A) (A) (A) (A) (A) (A) (A) (A) (A) (A) (A)
                 (A) (A) (A) (A) (A) (A) (A) (A) (A) (A) (A) (A)
                 (A) (A) (A) (A) (A) (A) (A) (A) (A) (A) (A) (A)
                 (A) (A) (A) (A) (A) (A) (A) (A) (A) (A) (A) (A)
                 (A) (A) (A) (A) (A) (A) (A) (A) (A) (A) (A) (A)
                 (A) (A) (A) (A) (A) (A) (A) (A) (A) (A) (A) (A)
                 (A) (A) (A) (A) (A) (A) (A) (A) (A) (A) (A) (A)
                 (A) (A) (A) (A) (A) (A) (A) (A) (A) (A) (A) (A)
                 (A) (A) (A) (A) (A) (A) (A) (A) (A) (A) (A) (A)
                 (A) (A) (A) (A) (A) (A) (A) (A) (A) (A) (A) (A)
                 (A) (A) (A) (A) (A) (A) (A) (A) (A) (A) (A) (A)
                 (A) (A) (A) (A) (A) (A) (A) (A) (A) (A) (A) (A)
                 (A) (A) (A) (A) (A) (A) (A) (A) (A) (A) (A) (A)
                 (A) (A) (A) (A) (A) (A) (A) (A) (A) (A) (A) (A)
                 (A) (A) (A) (A) (A) (A) (A) (A) (A) (A) (A) (A)
                 (A) (A) (A) (A) (A) (A) (A) (A) (A) (A) (A) (A)
                 (A) (A) (A) (A) (A) (A) (A) (A) (A) (A) (A) (A)
                 (A) (A) (A) (A) (A) (A) (A) (A) (A) (A) (A) (A)
                 (A) (A) (A) (A) (A) (A) (A) (A) (A) (A) (A) (A)
                 (A) (A) (A) (A) (A) (A) (A) (A) (A) (A) (A) (A)
                 (A) (A) (A) (A) (A) (A) (A) (A) (A) (A) (A) (A)
                 (A) (A) (A) (A) (A) (A) (A) (A) (A) (A) (A) (A)
                 (A) (A) (A) (A) (A) (A) (A) (A) (A) (A) (A) (A)
                 (A) (A) (A) (A) (A) (A) (A) (A) (A) (A) (A) (A)
                 (A) (A) (A) (A) (A) (A) (A) (A) (A) (A) (A) (A)
                 (A) (A) (A) (A) (A) (A) (A) (A) (A) (A) (A) (A)
                 (A) (A) (A) (A) (A) (A) (A) (A) (A) (A) (A) (A)
                 (A) (A) (A) (A) (A) (A) (A) (A) (A) (A) (A) (A)
                 (A) (A) (A) (A) (A) (A) (A) (A) (A) (A) (A) (A)
                 (A) (A) (A) (A) (A) (A) (A) (A) (A) (A) (A) (A)
                 (A) (A) (A) (A) (A) (A) (A) (A) (A) (A) (A) (A)
                 (A) (A) (A) (A) (A) (A) (A) (A) (A) (A) (A) (A)
                 (A) (A) (A) (A) (A) (A) (A) (A) (A) (A) (A) (A)
                 (A) (A) (A) (A) (A) (A) (A) (A) (A) (A) (A) (A)
                 (A) (A) (A) (A) (A) (A) (A) (A) (A) (A) (A) (A)
                 (A) (A) (A) (A) (A) (A) (A) (A) (A) (A) (A) (A)
                 (A) (A) (A) (A) (A) (A) (A) (A) (A) (A) (A) (A)
                 (A) (A) (A) (A) (A) (A) (A) (A) (A) (A) (A) (A)
                 (A) (A) (A) (A) (A) (A) (A) (A) (A) (A) (A) (A)
                 (A) (A) (A) (A) (A) (A) (A) (A) (A) (A) (A) (A)
                 (A) (A) (A) (A) (A) (A) (A) (A) (A) (A) (A) (A)
                 (A) (A) (A) (A) (A) (A) (A) (A) (A) (A) (A) (A)
                 (A) (A) (A) (A) (A) (A) (A) (A) (A) (A) (A) (A)
                 (A) (A) (A) (A) (A) (A) (A) (A) (A) (A) (A) (A)
                 (A) (A) (A) (A) (A) (A) (A) (A) (A) (A) (A) (A)
                 (A) (A) (A) (A) (A) (A) (A) (A) (A) (A) (A) (A)
                 (A) (A) (A) (A) (A) (A) (A) (A) (A) (A) (A) (A)
                 (A) (A) (A) (A) (A) (A) (A) (A) (A) (A) (A) (A)
                 (A) (A) (A) (A) (A) (A) (A) (A) (A) (A) (A) (A)
                 (A) (A) (A) (A) (A) (A) (A) (A) (A) (A) (A) (A)
                 (A) (A) (A) (A) (A) (A) (A) (A) (A) (A) (A) (A)
                 (A) (A) (A) (A) (A) (A) (A) (A) (A) (A) (A) (A)
                 (A) (A) (A) (A) (A) (A) (A) (A) (A) (A) (A) (A)
                 (A) (A) (A) (A) (A) (A) (A) (A) (A) (A) (A) (A)
                 (A) (A) (A) (A) (A) (A) (A) (A) (A) (A) (A) (A)
                 (A) (A) (A) (A) (A) (A) (A) (A) (A) (A) (A) (A)
                 (A) (A) (A) (A) (A) (A) (A) (A) (A) (A) (A) (A)
                 (A) (A) (A) (A) (A) (A) (A) (A) (A) (A) (A) (A)
                 (A) (A) (A) (A) (A) (A) (A) (A) (A) (A) (A) (A)
                 (A) (A) (A) (A) (A) (A) (A) (A) (A) (A) (A) (A)
                 (A)
 Beta  Orbitals:
       Occupied  (A) (A) (A) (A) (A) (A) (A) (A) (A) (A) (A) (A)
                 (A) (A) (A) (A) (A) (A) (A) (A) (A) (A) (A) (A)
                 (A) (A) (A) (A) (A) (A) (A) (A) (A) (A) (A) (A)
                 (A) (A) (A) (A) (A) (A) (A) (A) (A) (A) (A) (A)
                 (A) (A) (A) (A) (A) (A) (A) (A) (A) (A) (A) (A)
                 (A) (A) (A) (A) (A) (A) (A) (A) (A) (A) (A) (A)
                 (A) (A) (A) (A) (A) (A) (A) (A) (A) (A) (A) (A)
                 (A) (A) (A) (A) (A) (A) (A) (A) (A) (A) (A) (A)
                 (A) (A) (A) (A) (A) (A) (A) (A) (A) (A) (A) (A)
                 (A) (A) (A) (A) (A) (A) (A) (A) (A) (A) (A) (A)
                 (A) (A) (A) (A) (A) (A) (A) (A) (A) (A) (A) (A)
                 (A) (A) (A) (A) (A) (A) (A) (A) (A) (A) (A) (A)
                 (A) (A) (A) (A) (A) (A) (A) (A) (A) (A) (A) (A)
                 (A) (A) (A) (A) (A) (A) (A) (A) (A) (A) (A) (A)
                 (A) (A) (A) (A) (A) (A) (A) (A) (A) (A) (A) (A)
                 (A) (A) (A) (A) (A) (A) (A) (A) (A) (A) (A) (A)
                 (A) (A) (A) (A) (A)
       Virtual   (A) (A) (A) (A) (A) (A) (A) (A) (A) (A) (A) (A)
                 (A) (A) (A) (A) (A) (A) (A) (A) (A) (A) (A) (A)
                 (A) (A) (A) (A) (A) (A) (A) (A) (A) (A) (A) (A)
                 (A) (A) (A) (A) (A) (A) (A) (A) (A) (A) (A) (A)
                 (A) (A) (A) (A) (A) (A) (A) (A) (A) (A) (A) (A)
                 (A) (A) (A) (A) (A) (A) (A) (A) (A) (A) (A) (A)
                 (A) (A) (A) (A) (A) (A) (A) (A) (A) (A) (A) (A)
                 (A) (A) (A) (A) (A) (A) (A) (A) (A) (A) (A) (A)
                 (A) (A) (A) (A) (A) (A) (A) (A) (A) (A) (A) (A)
                 (A) (A) (A) (A) (A) (A) (A) (A) (A) (A) (A) (A)
                 (A) (A) (A) (A) (A) (A) (A) (A) (A) (A) (A) (A)
                 (A) (A) (A) (A) (A) (A) (A) (A) (A) (A) (A) (A)
                 (A) (A) (A) (A) (A) (A) (A) (A) (A) (A) (A) (A)
                 (A) (A) (A) (A) (A) (A) (A) (A) (A) (A) (A) (A)
                 (A) (A) (A) (A) (A) (A) (A) (A) (A) (A) (A) (A)
                 (A) (A) (A) (A) (A) (A) (A) (A) (A) (A) (A) (A)
                 (A) (A) (A) (A) (A) (A) (A) (A) (A) (A) (A) (A)
                 (A) (A) (A) (A) (A) (A) (A) (A) (A) (A) (A) (A)
                 (A) (A) (A) (A) (A) (A) (A) (A) (A) (A) (A) (A)
                 (A) (A) (A) (A) (A) (A) (A) (A) (A) (A) (A) (A)
                 (A) (A) (A) (A) (A) (A) (A) (A) (A) (A) (A) (A)
                 (A) (A) (A) (A) (A) (A) (A) (A) (A) (A) (A) (A)
                 (A) (A) (A) (A) (A) (A) (A) (A) (A) (A) (A) (A)
                 (A) (A) (A) (A) (A) (A) (A) (A) (A) (A) (A) (A)
                 (A) (A) (A) (A) (A) (A) (A) (A) (A) (A) (A) (A)
                 (A) (A) (A) (A) (A) (A) (A) (A) (A) (A) (A) (A)
                 (A) (A) (A) (A) (A) (A) (A) (A) (A) (A) (A) (A)
                 (A) (A) (A) (A) (A) (A) (A) (A) (A) (A) (A) (A)
                 (A) (A) (A) (A) (A) (A) (A) (A) (A) (A) (A) (A)
                 (A) (A) (A) (A) (A) (A) (A) (A) (A) (A) (A) (A)
                 (A) (A) (A) (A) (A) (A) (A) (A) (A) (A) (A) (A)
                 (A) (A) (A) (A) (A) (A) (A) (A) (A) (A) (A) (A)
                 (A) (A) (A) (A) (A) (A) (A) (A) (A) (A) (A) (A)
                 (A) (A) (A) (A) (A) (A) (A) (A) (A) (A) (A) (A)
                 (A) (A) (A) (A) (A) (A) (A) (A) (A) (A) (A) (A)
                 (A) (A) (A) (A) (A) (A) (A) (A) (A) (A) (A) (A)
                 (A) (A) (A) (A) (A) (A) (A) (A) (A) (A) (A) (A)
                 (A) (A) (A) (A) (A) (A) (A) (A) (A) (A) (A) (A)
                 (A) (A) (A) (A) (A) (A) (A) (A) (A) (A) (A) (A)
                 (A) (A) (A) (A) (A) (A) (A) (A) (A) (A) (A) (A)
                 (A) (A) (A) (A) (A) (A) (A) (A) (A) (A) (A) (A)
                 (A) (A) (A) (A) (A) (A) (A) (A) (A) (A) (A) (A)
                 (A) (A) (A) (A) (A) (A) (A) (A) (A) (A) (A) (A)
                 (A) (A) (A) (A) (A) (A) (A) (A) (A) (A) (A) (A)
                 (A) (A) (A) (A) (A) (A) (A) (A) (A) (A) (A) (A)
                 (A) (A) (A) (A) (A) (A) (A) (A) (A) (A) (A) (A)
                 (A) (A) (A) (A) (A) (A) (A) (A) (A) (A) (A) (A)
                 (A) (A) (A) (A) (A) (A) (A) (A) (A) (A) (A) (A)
                 (A) (A) (A) (A) (A) (A) (A) (A) (A) (A) (A) (A)
                 (A) (A) (A) (A) (A) (A) (A) (A) (A) (A) (A) (A)
                 (A) (A) (A) (A) (A) (A) (A) (A) (A) (A) (A) (A)
                 (A) (A) (A) (A) (A) (A) (A) (A) (A) (A) (A) (A)
                 (A) (A) (A) (A) (A) (A) (A) (A) (A) (A) (A) (A)
                 (A) (A) (A) (A) (A) (A) (A) (A) (A) (A) (A) (A)
                 (A) (A) (A) (A) (A) (A) (A) (A) (A) (A) (A) (A)
                 (A) (A) (A) (A) (A) (A) (A) (A) (A) (A) (A) (A)
                 (A) (A) (A) (A) (A) (A) (A) (A) (A) (A) (A) (A)
                 (A) (A) (A) (A) (A) (A) (A) (A) (A) (A) (A) (A)
                 (A) (A) (A) (A) (A) (A) (A) (A) (A) (A) (A) (A)
                 (A) (A) (A) (A) (A) (A) (A) (A) (A) (A) (A) (A)
                 (A) (A) (A) (A) (A) (A) (A) (A) (A) (A) (A) (A)
                 (A) (A) (A) (A) (A) (A) (A) (A) (A) (A) (A) (A)
                 (A) (A) (A) (A) (A) (A) (A) (A) (A) (A) (A) (A)
                 (A) (A) (A) (A) (A) (A) (A) (A) (A) (A) (A) (A)
                 (A) (A) (A) (A) (A) (A) (A) (A) (A) (A) (A) (A)
                 (A) (A) (A) (A) (A) (A) (A) (A) (A) (A) (A) (A)
                 (A) (A) (A) (A) (A) (A) (A) (A) (A) (A) (A) (A)
                 (A) (A) (A) (A) (A) (A) (A) (A) (A) (A) (A) (A)
                 (A) (A) (A) (A) (A) (A) (A) (A) (A) (A) (A) (A)
                 (A) (A) (A) (A) (A) (A) (A) (A) (A) (A) (A) (A)
                 (A) (A) (A) (A) (A) (A) (A) (A) (A) (A) (A) (A)
                 (A) (A) (A) (A) (A) (A) (A) (A) (A) (A) (A) (A)
                 (A) (A) (A) (A) (A) (A) (A) (A) (A) (A) (A) (A)
                 (A) (A) (A) (A) (A) (A) (A) (A) (A) (A) (A) (A)
                 (A) (A) (A) (A) (A) (A) (A) (A) (A) (A) (A) (A)
                 (A) (A) (A) (A) (A) (A) (A) (A) (A) (A) (A) (A)
                 (A) (A) (A) (A) (A) (A) (A) (A) (A) (A) (A) (A)
                 (A) (A) (A) (A) (A) (A) (A) (A) (A) (A) (A) (A)
                 (A) (A) (A) (A) (A) (A) (A) (A) (A) (A) (A) (A)
                 (A) (A) (A) (A) (A) (A) (A) (A) (A) (A) (A) (A)
                 (A) (A) (A) (A) (A) (A) (A) (A) (A) (A) (A) (A)
                 (A) (A) (A) (A) (A) (A) (A) (A) (A) (A) (A) (A)
                 (A) (A) (A) (A) (A) (A) (A) (A) (A) (A) (A) (A)
                 (A) (A) (A) (A) (A) (A) (A) (A) (A) (A) (A) (A)
                 (A) (A) (A) (A) (A) (A) (A) (A) (A) (A) (A) (A)
                 (A) (A) (A) (A) (A) (A) (A) (A) (A) (A) (A) (A)
                 (A) (A) (A) (A) (A) (A) (A) (A) (A) (A) (A) (A)
                 (A) (A) (A) (A) (A) (A) (A) (A) (A) (A) (A) (A)
                 (A) (A) (A) (A) (A) (A) (A) (A) (A) (A) (A) (A)
                 (A) (A) (A) (A) (A) (A) (A) (A) (A) (A) (A) (A)
                 (A) (A) (A) (A) (A) (A) (A) (A) (A) (A) (A) (A)
                 (A) (A) (A) (A) (A) (A) (A) (A) (A) (A) (A) (A)
                 (A) (A) (A) (A) (A) (A) (A) (A) (A) (A) (A) (A)
                 (A) (A) (A) (A) (A) (A) (A) (A) (A) (A) (A) (A)
                 (A) (A) (A) (A) (A) (A) (A) (A) (A) (A) (A) (A)
                 (A) (A) (A) (A) (A) (A) (A) (A) (A) (A) (A) (A)
                 (A) (A) (A) (A) (A) (A) (A) (A) (A) (A) (A) (A)
                 (A) (A) (A) (A) (A) (A) (A) (A) (A) (A) (A) (A)
                 (A) (A) (A) (A) (A) (A) (A) (A) (A) (A) (A) (A)
                 (A) (A) (A) (A) (A) (A) (A) (A) (A) (A) (A) (A)
                 (A) (A) (A) (A) (A) (A) (A) (A) (A) (A) (A) (A)
                 (A) (A) (A) (A) (A) (A) (A) (A) (A) (A) (A) (A)
                 (A) (A) (A) (A) (A) (A) (A) (A) (A) (A) (A) (A)
                 (A) (A) (A) (A) (A) (A) (A) (A) (A) (A) (A) (A)
                 (A) (A) (A) (A) (A) (A) (A) (A) (A) (A) (A) (A)
                 (A) (A) (A) (A) (A) (A) (A) (A) (A) (A) (A) (A)
                 (A) (A) (A) (A) (A) (A) (A) (A) (A) (A) (A) (A)
                 (A) (A) (A) (A) (A) (A) (A) (A) (A) (A) (A) (A)
                 (A) (A) (A) (A) (A) (A) (A) (A) (A) (A) (A) (A)
                 (A) (A) (A) (A) (A) (A) (A) (A) (A) (A) (A) (A)
                 (A) (A) (A) (A) (A) (A) (A) (A) (A) (A) (A) (A)
                 (A) (A) (A) (A) (A) (A) (A) (A) (A) (A) (A) (A)
                 (A) (A) (A) (A) (A) (A) (A) (A) (A) (A) (A) (A)
                 (A) (A) (A) (A) (A) (A) (A) (A) (A) (A) (A) (A)
                 (A) (A) (A) (A) (A) (A) (A) (A) (A) (A) (A) (A)
                 (A) (A) (A) (A) (A) (A) (A) (A) (A) (A) (A) (A)
                 (A) (A) (A) (A) (A) (A) (A) (A) (A) (A) (A) (A)
                 (A) (A) (A) (A) (A) (A) (A) (A) (A) (A) (A) (A)
                 (A) (A) (A) (A) (A) (A) (A) (A) (A) (A) (A) (A)
                 (A) (A) (A) (A) (A) (A) (A) (A) (A) (A) (A) (A)
                 (A) (A) (A) (A) (A) (A) (A) (A) (A) (A) (A) (A)
                 (A) (A) (A) (A) (A) (A) (A) (A) (A) (A) (A) (A)
                 (A) (A) (A) (A) (A) (A) (A) (A) (A) (A) (A) (A)
                 (A) (A) (A) (A) (A) (A) (A) (A) (A) (A) (A) (A)
                 (A) (A) (A) (A) (A) (A) (A) (A) (A) (A) (A) (A)
                 (A) (A) (A) (A) (A) (A) (A) (A) (A) (A) (A) (A)
                 (A) (A) (A) (A) (A) (A) (A) (A) (A) (A) (A) (A)
                 (A) (A) (A) (A) (A) (A) (A) (A) (A) (A) (A) (A)
                 (A) (A) (A) (A) (A) (A) (A) (A) (A) (A) (A) (A)
                 (A) (A) (A) (A) (A) (A) (A) (A) (A) (A) (A) (A)
                 (A) (A) (A) (A) (A) (A) (A) (A) (A) (A) (A) (A)
                 (A) (A) (A) (A) (A) (A) (A) (A) (A) (A) (A) (A)
                 (A) (A) (A) (A) (A) (A) (A) (A) (A) (A) (A) (A)
                 (A) (A) (A) (A) (A) (A) (A) (A) (A) (A) (A) (A)
                 (A) (A) (A) (A) (A) (A) (A) (A) (A) (A) (A) (A)
                 (A) (A) (A) (A) (A) (A) (A) (A) (A) (A) (A) (A)
                 (A) (A) (A) (A) (A) (A) (A) (A) (A) (A) (A) (A)
                 (A) (A) (A) (A)
 The electronic state is 4-A.
 Alpha  occ. eigenvalues -- -101.07720 -19.02310 -19.01867 -19.00573 -14.19891
 Alpha  occ. eigenvalues --  -14.19691 -14.18379 -14.18139 -10.15502 -10.15434
 Alpha  occ. eigenvalues --  -10.13557 -10.12049 -10.11734 -10.11714 -10.10867
 Alpha  occ. eigenvalues --  -10.10772 -10.10478 -10.09777 -10.09592 -10.08747
 Alpha  occ. eigenvalues --  -10.07793 -10.07696 -10.07566 -10.07282 -10.07253
 Alpha  occ. eigenvalues --  -10.07201 -10.07183 -10.07078 -10.06922 -10.06496
 Alpha  occ. eigenvalues --  -10.06458 -10.06147 -10.06099 -10.06091 -10.05944
 Alpha  occ. eigenvalues --  -10.05914 -10.05840 -10.05837 -10.05786 -10.05751
 Alpha  occ. eigenvalues --  -10.05697 -10.05554 -10.04749 -10.04720 -10.04611
 Alpha  occ. eigenvalues --  -10.04598 -10.04517 -10.04103 -10.03606  -9.30691
 Alpha  occ. eigenvalues --   -7.01110  -7.00830  -7.00801  -4.06309  -4.00558
 Alpha  occ. eigenvalues --   -2.65580  -2.64873  -2.63615  -2.60296  -2.60212
 Alpha  occ. eigenvalues --   -2.56835  -1.07427  -1.07073  -1.04209  -0.95159
 Alpha  occ. eigenvalues --   -0.90487  -0.88243  -0.87359  -0.82045  -0.81635
 Alpha  occ. eigenvalues --   -0.79750  -0.79220  -0.78517  -0.78209  -0.75961
 Alpha  occ. eigenvalues --   -0.75073  -0.74616  -0.73211  -0.72722  -0.71387
 Alpha  occ. eigenvalues --   -0.71050  -0.70412  -0.69170  -0.68300  -0.67570
 Alpha  occ. eigenvalues --   -0.65689  -0.65165  -0.65118  -0.64931  -0.64640
 Alpha  occ. eigenvalues --   -0.64267  -0.63071  -0.61209  -0.60881  -0.60841
 Alpha  occ. eigenvalues --   -0.58789  -0.57540  -0.57019  -0.56421  -0.56131
 Alpha  occ. eigenvalues --   -0.55514  -0.55130  -0.52253  -0.51371  -0.50448
 Alpha  occ. eigenvalues --   -0.50009  -0.49982  -0.49380  -0.48989  -0.48677
 Alpha  occ. eigenvalues --   -0.47731  -0.46829  -0.46566  -0.46236  -0.45891
 Alpha  occ. eigenvalues --   -0.44868  -0.44736  -0.43049  -0.42877  -0.42749
 Alpha  occ. eigenvalues --   -0.42688  -0.42517  -0.42152  -0.41897  -0.41748
 Alpha  occ. eigenvalues --   -0.41180  -0.41035  -0.40943  -0.40647  -0.40546
 Alpha  occ. eigenvalues --   -0.40093  -0.40027  -0.39674  -0.39301  -0.38866
 Alpha  occ. eigenvalues --   -0.38752  -0.38478  -0.38288  -0.37794  -0.37661
 Alpha  occ. eigenvalues --   -0.37247  -0.37110  -0.36383  -0.35966  -0.35771
 Alpha  occ. eigenvalues --   -0.35408  -0.35255  -0.35157  -0.34759  -0.34733
 Alpha  occ. eigenvalues --   -0.34566  -0.34471  -0.34216  -0.33745  -0.33624
 Alpha  occ. eigenvalues --   -0.33380  -0.33142  -0.33030  -0.32933  -0.32553
 Alpha  occ. eigenvalues --   -0.32335  -0.32190  -0.32014  -0.31602  -0.31506
 Alpha  occ. eigenvalues --   -0.31466  -0.31167  -0.31028  -0.30688  -0.30344
 Alpha  occ. eigenvalues --   -0.30076  -0.29714  -0.29636  -0.29507  -0.29419
 Alpha  occ. eigenvalues --   -0.29203  -0.28610  -0.27703  -0.26405  -0.25909
 Alpha  occ. eigenvalues --   -0.25601  -0.25281  -0.24795  -0.24636  -0.24143
 Alpha  occ. eigenvalues --   -0.23805  -0.23689  -0.23400  -0.22516  -0.22178
 Alpha  occ. eigenvalues --   -0.21905  -0.21570  -0.21024  -0.20814  -0.20157
 Alpha  occ. eigenvalues --   -0.19400  -0.18651  -0.17782  -0.15971  -0.13685
 Alpha virt. eigenvalues --   -0.09400  -0.09132  -0.07162  -0.04962  -0.04276
 Alpha virt. eigenvalues --   -0.04133  -0.03899  -0.03687  -0.02128   0.00399
 Alpha virt. eigenvalues --    0.01086   0.01587   0.02077   0.02386   0.02807
 Alpha virt. eigenvalues --    0.03533   0.03880   0.04132   0.04406   0.04928
 Alpha virt. eigenvalues --    0.05231   0.05414   0.05557   0.05818   0.06096
 Alpha virt. eigenvalues --    0.06340   0.06676   0.06781   0.06876   0.07164
 Alpha virt. eigenvalues --    0.07496   0.07639   0.07880   0.08159   0.08489
 Alpha virt. eigenvalues --    0.08677   0.08950   0.09059   0.09446   0.09595
 Alpha virt. eigenvalues --    0.09829   0.10104   0.10215   0.10446   0.10696
 Alpha virt. eigenvalues --    0.10938   0.11055   0.11217   0.11380   0.11423
 Alpha virt. eigenvalues --    0.11460   0.11719   0.11834   0.12256   0.12576
 Alpha virt. eigenvalues --    0.12632   0.12730   0.13168   0.13237   0.13552
 Alpha virt. eigenvalues --    0.13709   0.13820   0.13964   0.14127   0.14217
 Alpha virt. eigenvalues --    0.14566   0.14707   0.14843   0.15224   0.15298
 Alpha virt. eigenvalues --    0.15425   0.15741   0.16188   0.16339   0.16539
 Alpha virt. eigenvalues --    0.16591   0.16844   0.17179   0.17236   0.17410
 Alpha virt. eigenvalues --    0.17631   0.17788   0.17945   0.18098   0.18486
 Alpha virt. eigenvalues --    0.18830   0.19040   0.19321   0.19627   0.19819
 Alpha virt. eigenvalues --    0.19989   0.20257   0.20485   0.20805   0.21264
 Alpha virt. eigenvalues --    0.21315   0.21481   0.21697   0.21882   0.22141
 Alpha virt. eigenvalues --    0.22177   0.22363   0.22636   0.22825   0.23018
 Alpha virt. eigenvalues --    0.23056   0.23196   0.23516   0.23689   0.23945
 Alpha virt. eigenvalues --    0.24160   0.24188   0.24516   0.24904   0.25111
 Alpha virt. eigenvalues --    0.25271   0.25305   0.25371   0.25569   0.25977
 Alpha virt. eigenvalues --    0.26138   0.26221   0.26485   0.26849   0.27106
 Alpha virt. eigenvalues --    0.27178   0.27249   0.27526   0.27561   0.27992
 Alpha virt. eigenvalues --    0.28101   0.28268   0.28501   0.28754   0.28846
 Alpha virt. eigenvalues --    0.29140   0.29331   0.29428   0.29675   0.30024
 Alpha virt. eigenvalues --    0.30111   0.30182   0.30329   0.30504   0.30585
 Alpha virt. eigenvalues --    0.30751   0.30896   0.31021   0.31296   0.31584
 Alpha virt. eigenvalues --    0.31746   0.31923   0.32275   0.32430   0.32687
 Alpha virt. eigenvalues --    0.32909   0.33150   0.33347   0.33535   0.33626
 Alpha virt. eigenvalues --    0.33941   0.34209   0.34374   0.34588   0.34705
 Alpha virt. eigenvalues --    0.34830   0.35090   0.35347   0.35425   0.35612
 Alpha virt. eigenvalues --    0.35850   0.36006   0.36204   0.36447   0.36510
 Alpha virt. eigenvalues --    0.36572   0.36688   0.36876   0.37105   0.37208
 Alpha virt. eigenvalues --    0.37278   0.37642   0.37772   0.38102   0.38179
 Alpha virt. eigenvalues --    0.38302   0.38641   0.38673   0.38930   0.39101
 Alpha virt. eigenvalues --    0.39144   0.39499   0.39540   0.39607   0.39813
 Alpha virt. eigenvalues --    0.39976   0.40143   0.40175   0.40570   0.40679
 Alpha virt. eigenvalues --    0.40718   0.41082   0.41378   0.41428   0.41540
 Alpha virt. eigenvalues --    0.41882   0.41955   0.42208   0.42344   0.42442
 Alpha virt. eigenvalues --    0.42723   0.42835   0.43025   0.43158   0.43251
 Alpha virt. eigenvalues --    0.43423   0.43526   0.43635   0.43835   0.43925
 Alpha virt. eigenvalues --    0.43955   0.44183   0.44208   0.44561   0.44698
 Alpha virt. eigenvalues --    0.44820   0.44954   0.45155   0.45286   0.45410
 Alpha virt. eigenvalues --    0.45749   0.45870   0.46075   0.46117   0.46353
 Alpha virt. eigenvalues --    0.46380   0.46645   0.46783   0.47145   0.47185
 Alpha virt. eigenvalues --    0.47346   0.47452   0.47849   0.47925   0.48167
 Alpha virt. eigenvalues --    0.48331   0.48751   0.48830   0.48908   0.49062
 Alpha virt. eigenvalues --    0.49394   0.49589   0.49709   0.49969   0.50203
 Alpha virt. eigenvalues --    0.50420   0.50678   0.50853   0.51494   0.51646
 Alpha virt. eigenvalues --    0.51799   0.51999   0.52132   0.52704   0.52745
 Alpha virt. eigenvalues --    0.53133   0.53342   0.53523   0.53707   0.54110
 Alpha virt. eigenvalues --    0.54317   0.54710   0.54995   0.55207   0.55540
 Alpha virt. eigenvalues --    0.55990   0.56080   0.56301   0.56576   0.57226
 Alpha virt. eigenvalues --    0.57390   0.57676   0.57876   0.57940   0.58205
 Alpha virt. eigenvalues --    0.58426   0.58761   0.59277   0.59388   0.59619
 Alpha virt. eigenvalues --    0.60032   0.60530   0.60623   0.60688   0.60781
 Alpha virt. eigenvalues --    0.61241   0.61525   0.61729   0.61975   0.62194
 Alpha virt. eigenvalues --    0.62558   0.62968   0.63113   0.63351   0.63737
 Alpha virt. eigenvalues --    0.63908   0.64180   0.64680   0.64817   0.64920
 Alpha virt. eigenvalues --    0.65154   0.65361   0.65523   0.65819   0.66112
 Alpha virt. eigenvalues --    0.66377   0.66660   0.66835   0.67017   0.67430
 Alpha virt. eigenvalues --    0.67513   0.67797   0.68003   0.68191   0.68338
 Alpha virt. eigenvalues --    0.68701   0.68925   0.69182   0.69631   0.69762
 Alpha virt. eigenvalues --    0.70151   0.70503   0.70740   0.70827   0.71101
 Alpha virt. eigenvalues --    0.71609   0.71826   0.71873   0.72131   0.72544
 Alpha virt. eigenvalues --    0.72643   0.72788   0.73199   0.73317   0.73791
 Alpha virt. eigenvalues --    0.74094   0.74600   0.74650   0.75273   0.75354
 Alpha virt. eigenvalues --    0.75539   0.75925   0.76159   0.76272   0.76608
 Alpha virt. eigenvalues --    0.77090   0.77371   0.77531   0.77803   0.77870
 Alpha virt. eigenvalues --    0.78210   0.78633   0.79024   0.79292   0.79507
 Alpha virt. eigenvalues --    0.79750   0.79967   0.80079   0.80230   0.80666
 Alpha virt. eigenvalues --    0.81307   0.81448   0.81650   0.82036   0.82529
 Alpha virt. eigenvalues --    0.82807   0.83016   0.83294   0.83554   0.83816
 Alpha virt. eigenvalues --    0.84242   0.84530   0.84875   0.85077   0.85411
 Alpha virt. eigenvalues --    0.85542   0.85806   0.85943   0.86359   0.86506
 Alpha virt. eigenvalues --    0.86764   0.86983   0.87113   0.87547   0.87924
 Alpha virt. eigenvalues --    0.88180   0.88356   0.88781   0.88976   0.89785
 Alpha virt. eigenvalues --    0.89850   0.90147   0.90420   0.90703   0.91099
 Alpha virt. eigenvalues --    0.91352   0.91548   0.91948   0.92249   0.92325
 Alpha virt. eigenvalues --    0.92507   0.93111   0.93682   0.93823   0.94057
 Alpha virt. eigenvalues --    0.94240   0.94931   0.95251   0.95481   0.95967
 Alpha virt. eigenvalues --    0.96503   0.96646   0.97256   0.97504   0.97712
 Alpha virt. eigenvalues --    0.98169   0.98490   0.98875   0.99148   0.99876
 Alpha virt. eigenvalues --    1.00150   1.00475   1.00620   1.01165   1.01455
 Alpha virt. eigenvalues --    1.01930   1.02408   1.02613   1.02952   1.03296
 Alpha virt. eigenvalues --    1.03779   1.04140   1.04429   1.04810   1.04992
 Alpha virt. eigenvalues --    1.05404   1.05513   1.05668   1.06386   1.06579
 Alpha virt. eigenvalues --    1.06992   1.07260   1.07552   1.07817   1.08221
 Alpha virt. eigenvalues --    1.08512   1.08704   1.08835   1.09060   1.09395
 Alpha virt. eigenvalues --    1.09536   1.10076   1.10543   1.10780   1.10935
 Alpha virt. eigenvalues --    1.11206   1.11870   1.12202   1.12690   1.12838
 Alpha virt. eigenvalues --    1.13102   1.13464   1.13826   1.14192   1.14359
 Alpha virt. eigenvalues --    1.14435   1.14788   1.15185   1.15666   1.16075
 Alpha virt. eigenvalues --    1.16430   1.16655   1.16755   1.16979   1.17093
 Alpha virt. eigenvalues --    1.17857   1.17941   1.18554   1.18726   1.19364
 Alpha virt. eigenvalues --    1.19676   1.19806   1.20160   1.20486   1.20839
 Alpha virt. eigenvalues --    1.21251   1.21495   1.21945   1.22105   1.22477
 Alpha virt. eigenvalues --    1.22694   1.22805   1.23129   1.23487   1.24062
 Alpha virt. eigenvalues --    1.24296   1.24548   1.24654   1.25209   1.25657
 Alpha virt. eigenvalues --    1.25898   1.25955   1.26214   1.26828   1.27082
 Alpha virt. eigenvalues --    1.27493   1.27834   1.28138   1.28428   1.28511
 Alpha virt. eigenvalues --    1.28867   1.28941   1.29216   1.29370   1.29726
 Alpha virt. eigenvalues --    1.30525   1.30899   1.31211   1.31652   1.32203
 Alpha virt. eigenvalues --    1.32247   1.32813   1.33247   1.33554   1.33889
 Alpha virt. eigenvalues --    1.34272   1.34953   1.35355   1.35773   1.36471
 Alpha virt. eigenvalues --    1.36847   1.37461   1.37592   1.38137   1.38314
 Alpha virt. eigenvalues --    1.38543   1.38652   1.39083   1.39607   1.40083
 Alpha virt. eigenvalues --    1.40455   1.41126   1.41546   1.41622   1.42011
 Alpha virt. eigenvalues --    1.42205   1.42661   1.43339   1.43637   1.43968
 Alpha virt. eigenvalues --    1.44498   1.44622   1.44984   1.45494   1.45800
 Alpha virt. eigenvalues --    1.46001   1.46480   1.46777   1.47126   1.47642
 Alpha virt. eigenvalues --    1.47964   1.48406   1.48682   1.48830   1.49131
 Alpha virt. eigenvalues --    1.49259   1.49815   1.49994   1.50262   1.50976
 Alpha virt. eigenvalues --    1.51356   1.51528   1.51893   1.52074   1.52563
 Alpha virt. eigenvalues --    1.52741   1.53022   1.53474   1.53654   1.53983
 Alpha virt. eigenvalues --    1.54152   1.54324   1.54615   1.55038   1.55452
 Alpha virt. eigenvalues --    1.55677   1.55988   1.56684   1.56869   1.57255
 Alpha virt. eigenvalues --    1.57452   1.57665   1.57881   1.58046   1.58292
 Alpha virt. eigenvalues --    1.58612   1.58847   1.59200   1.59307   1.59629
 Alpha virt. eigenvalues --    1.59969   1.60372   1.60408   1.60921   1.61004
 Alpha virt. eigenvalues --    1.61141   1.61293   1.61526   1.61876   1.62157
 Alpha virt. eigenvalues --    1.62235   1.62623   1.62903   1.63226   1.63572
 Alpha virt. eigenvalues --    1.63947   1.64094   1.64168   1.64761   1.64979
 Alpha virt. eigenvalues --    1.65468   1.65692   1.65795   1.65988   1.66405
 Alpha virt. eigenvalues --    1.67068   1.67255   1.67815   1.67956   1.68328
 Alpha virt. eigenvalues --    1.68644   1.68999   1.69494   1.69565   1.69752
 Alpha virt. eigenvalues --    1.70063   1.70171   1.70475   1.70733   1.71124
 Alpha virt. eigenvalues --    1.71670   1.71855   1.72538   1.72690   1.72847
 Alpha virt. eigenvalues --    1.73175   1.73408   1.73790   1.74003   1.74623
 Alpha virt. eigenvalues --    1.74834   1.75442   1.75629   1.75691   1.76152
 Alpha virt. eigenvalues --    1.76384   1.77046   1.77590   1.77966   1.78084
 Alpha virt. eigenvalues --    1.78698   1.78967   1.79550   1.79753   1.80551
 Alpha virt. eigenvalues --    1.80956   1.81104   1.81673   1.82197   1.82507
 Alpha virt. eigenvalues --    1.83087   1.83180   1.83521   1.84381   1.85221
 Alpha virt. eigenvalues --    1.85305   1.85757   1.86102   1.86361   1.87393
 Alpha virt. eigenvalues --    1.87673   1.87775   1.88040   1.88492   1.88665
 Alpha virt. eigenvalues --    1.89356   1.89558   1.89785   1.90022   1.90972
 Alpha virt. eigenvalues --    1.91112   1.91224   1.91536   1.92040   1.92091
 Alpha virt. eigenvalues --    1.92360   1.92659   1.92983   1.93038   1.93308
 Alpha virt. eigenvalues --    1.93980   1.94578   1.94775   1.94953   1.95181
 Alpha virt. eigenvalues --    1.95708   1.96009   1.96263   1.96545   1.97001
 Alpha virt. eigenvalues --    1.97320   1.97657   1.97695   1.98286   1.98731
 Alpha virt. eigenvalues --    1.99120   1.99264   1.99802   2.00289   2.00599
 Alpha virt. eigenvalues --    2.00907   2.01195   2.01377   2.02397   2.02504
 Alpha virt. eigenvalues --    2.03059   2.03259   2.03607   2.03925   2.04145
 Alpha virt. eigenvalues --    2.04643   2.05061   2.05170   2.05330   2.05969
 Alpha virt. eigenvalues --    2.06092   2.06326   2.07248   2.07822   2.07932
 Alpha virt. eigenvalues --    2.08110   2.08604   2.08905   2.09449   2.09933
 Alpha virt. eigenvalues --    2.10116   2.10535   2.10823   2.11147   2.11808
 Alpha virt. eigenvalues --    2.11916   2.12062   2.12395   2.13121   2.13175
 Alpha virt. eigenvalues --    2.13453   2.13756   2.14581   2.15047   2.15247
 Alpha virt. eigenvalues --    2.15729   2.16132   2.16670   2.16980   2.17362
 Alpha virt. eigenvalues --    2.17861   2.18080   2.18248   2.18627   2.19138
 Alpha virt. eigenvalues --    2.19257   2.19936   2.20167   2.20520   2.20718
 Alpha virt. eigenvalues --    2.21228   2.21526   2.21743   2.21845   2.22427
 Alpha virt. eigenvalues --    2.22807   2.23089   2.23201   2.23303   2.23927
 Alpha virt. eigenvalues --    2.24020   2.24294   2.24522   2.24698   2.25276
 Alpha virt. eigenvalues --    2.25764   2.26207   2.26755   2.27085   2.27167
 Alpha virt. eigenvalues --    2.27598   2.27823   2.28373   2.28742   2.28971
 Alpha virt. eigenvalues --    2.29322   2.29934   2.30054   2.30730   2.31059
 Alpha virt. eigenvalues --    2.31146   2.31544   2.31966   2.32290   2.32952
 Alpha virt. eigenvalues --    2.33113   2.33408   2.33674   2.34228   2.34529
 Alpha virt. eigenvalues --    2.34741   2.35113   2.35228   2.35903   2.36140
 Alpha virt. eigenvalues --    2.36490   2.37202   2.37323   2.37763   2.38289
 Alpha virt. eigenvalues --    2.38637   2.38857   2.39059   2.39580   2.39770
 Alpha virt. eigenvalues --    2.40338   2.40416   2.41092   2.41415   2.41890
 Alpha virt. eigenvalues --    2.42322   2.42746   2.42841   2.43227   2.43479
 Alpha virt. eigenvalues --    2.43715   2.44376   2.44566   2.44751   2.45205
 Alpha virt. eigenvalues --    2.45872   2.46088   2.46397   2.47149   2.47734
 Alpha virt. eigenvalues --    2.47979   2.48607   2.49590   2.49768   2.50148
 Alpha virt. eigenvalues --    2.50557   2.51136   2.51374   2.51624   2.52317
 Alpha virt. eigenvalues --    2.52469   2.52896   2.53179   2.53599   2.53926
 Alpha virt. eigenvalues --    2.54209   2.54658   2.54822   2.54954   2.55437
 Alpha virt. eigenvalues --    2.55616   2.55894   2.56349   2.56903   2.57089
 Alpha virt. eigenvalues --    2.57284   2.57726   2.58130   2.58470   2.58517
 Alpha virt. eigenvalues --    2.58741   2.58947   2.59222   2.59322   2.59708
 Alpha virt. eigenvalues --    2.60048   2.60264   2.60868   2.61039   2.61618
 Alpha virt. eigenvalues --    2.61730   2.62135   2.62369   2.62811   2.63167
 Alpha virt. eigenvalues --    2.63558   2.63739   2.63862   2.64226   2.64581
 Alpha virt. eigenvalues --    2.64875   2.64979   2.65148   2.65441   2.65975
 Alpha virt. eigenvalues --    2.66063   2.66153   2.66490   2.66617   2.67294
 Alpha virt. eigenvalues --    2.67361   2.67633   2.67791   2.68154   2.68233
 Alpha virt. eigenvalues --    2.68600   2.69008   2.69260   2.69621   2.69759
 Alpha virt. eigenvalues --    2.69930   2.70451   2.70590   2.71132   2.71424
 Alpha virt. eigenvalues --    2.71640   2.72024   2.72160   2.72578   2.72689
 Alpha virt. eigenvalues --    2.73218   2.73549   2.74134   2.74254   2.74644
 Alpha virt. eigenvalues --    2.74755   2.74899   2.75691   2.75810   2.75815
 Alpha virt. eigenvalues --    2.76317   2.76507   2.76816   2.77340   2.77821
 Alpha virt. eigenvalues --    2.77989   2.78276   2.78615   2.78904   2.79360
 Alpha virt. eigenvalues --    2.80012   2.80196   2.80316   2.80970   2.81095
 Alpha virt. eigenvalues --    2.81320   2.81574   2.81840   2.82248   2.82563
 Alpha virt. eigenvalues --    2.82914   2.83224   2.83475   2.83994   2.84042
 Alpha virt. eigenvalues --    2.84168   2.84770   2.85266   2.85381   2.85574
 Alpha virt. eigenvalues --    2.85920   2.86275   2.86658   2.86910   2.87338
 Alpha virt. eigenvalues --    2.87452   2.87789   2.88064   2.88132   2.88314
 Alpha virt. eigenvalues --    2.88757   2.89237   2.89447   2.89743   2.89906
 Alpha virt. eigenvalues --    2.90324   2.90895   2.91109   2.91256   2.91476
 Alpha virt. eigenvalues --    2.91807   2.92036   2.92224   2.92598   2.92810
 Alpha virt. eigenvalues --    2.93204   2.93541   2.93636   2.93927   2.94228
 Alpha virt. eigenvalues --    2.94459   2.94865   2.95385   2.95551   2.95793
 Alpha virt. eigenvalues --    2.96128   2.96682   2.96724   2.97296   2.97400
 Alpha virt. eigenvalues --    2.98162   2.98284   2.99053   2.99433   3.00015
 Alpha virt. eigenvalues --    3.00292   3.00642   3.00749   3.01386   3.01803
 Alpha virt. eigenvalues --    3.02166   3.02252   3.02801   3.03144   3.03888
 Alpha virt. eigenvalues --    3.04373   3.04763   3.05075   3.05148   3.05617
 Alpha virt. eigenvalues --    3.05970   3.06588   3.06856   3.07350   3.07438
 Alpha virt. eigenvalues --    3.07758   3.08709   3.08863   3.09296   3.10038
 Alpha virt. eigenvalues --    3.10498   3.10813   3.10957   3.11188   3.11444
 Alpha virt. eigenvalues --    3.11813   3.12142   3.12357   3.12509   3.12670
 Alpha virt. eigenvalues --    3.13090   3.13332   3.13778   3.14155   3.14728
 Alpha virt. eigenvalues --    3.14764   3.15527   3.15601   3.15914   3.16150
 Alpha virt. eigenvalues --    3.16367   3.16669   3.17198   3.17625   3.18176
 Alpha virt. eigenvalues --    3.18362   3.18748   3.18854   3.19054   3.19175
 Alpha virt. eigenvalues --    3.19549   3.20026   3.20355   3.20615   3.20962
 Alpha virt. eigenvalues --    3.21447   3.21552   3.21952   3.21996   3.22447
 Alpha virt. eigenvalues --    3.22501   3.23090   3.23124   3.23439   3.23774
 Alpha virt. eigenvalues --    3.23979   3.24180   3.24537   3.24657   3.25082
 Alpha virt. eigenvalues --    3.25306   3.25665   3.26159   3.26276   3.26864
 Alpha virt. eigenvalues --    3.26967   3.27228   3.27599   3.27752   3.27966
 Alpha virt. eigenvalues --    3.28188   3.28504   3.28962   3.29141   3.29393
 Alpha virt. eigenvalues --    3.29864   3.30176   3.30501   3.30825   3.31060
 Alpha virt. eigenvalues --    3.31276   3.31566   3.31745   3.32109   3.32324
 Alpha virt. eigenvalues --    3.32401   3.32800   3.33064   3.33125   3.33549
 Alpha virt. eigenvalues --    3.33923   3.34086   3.34522   3.34892   3.34984
 Alpha virt. eigenvalues --    3.35468   3.35655   3.35795   3.35992   3.36562
 Alpha virt. eigenvalues --    3.36758   3.36787   3.37118   3.37534   3.37697
 Alpha virt. eigenvalues --    3.37995   3.38217   3.38278   3.38464   3.38678
 Alpha virt. eigenvalues --    3.39364   3.39509   3.39686   3.39910   3.40473
 Alpha virt. eigenvalues --    3.40622   3.40753   3.41097   3.41196   3.41418
 Alpha virt. eigenvalues --    3.41829   3.42004   3.42060   3.42488   3.42708
 Alpha virt. eigenvalues --    3.43007   3.43257   3.43321   3.43733   3.43807
 Alpha virt. eigenvalues --    3.44007   3.44199   3.44606   3.45121   3.45280
 Alpha virt. eigenvalues --    3.45602   3.45841   3.45890   3.46194   3.46860
 Alpha virt. eigenvalues --    3.46957   3.47107   3.47527   3.47875   3.48083
 Alpha virt. eigenvalues --    3.48322   3.48557   3.49091   3.49231   3.49647
 Alpha virt. eigenvalues --    3.49756   3.50060   3.50415   3.50614   3.50827
 Alpha virt. eigenvalues --    3.51294   3.51663   3.51840   3.52136   3.52360
 Alpha virt. eigenvalues --    3.52858   3.53052   3.53362   3.53713   3.54200
 Alpha virt. eigenvalues --    3.54227   3.54411   3.54804   3.55043   3.55460
 Alpha virt. eigenvalues --    3.55757   3.56025   3.56405   3.56821   3.57083
 Alpha virt. eigenvalues --    3.57192   3.57276   3.57676   3.57960   3.58521
 Alpha virt. eigenvalues --    3.58768   3.58881   3.59194   3.59507   3.60158
 Alpha virt. eigenvalues --    3.60233   3.60826   3.61159   3.61637   3.61801
 Alpha virt. eigenvalues --    3.62004   3.62501   3.63040   3.63485   3.63513
 Alpha virt. eigenvalues --    3.63961   3.64365   3.64810   3.65751   3.66101
 Alpha virt. eigenvalues --    3.66702   3.67300   3.67453   3.67994   3.68265
 Alpha virt. eigenvalues --    3.68658   3.69374   3.69418   3.69990   3.70184
 Alpha virt. eigenvalues --    3.70417   3.71339   3.71420   3.71671   3.72193
 Alpha virt. eigenvalues --    3.72579   3.73083   3.73330   3.74243   3.74495
 Alpha virt. eigenvalues --    3.74723   3.75786   3.76239   3.76391   3.76912
 Alpha virt. eigenvalues --    3.77083   3.77530   3.77961   3.78856   3.79426
 Alpha virt. eigenvalues --    3.79914   3.80345   3.80646   3.81452   3.81655
 Alpha virt. eigenvalues --    3.81804   3.82107   3.82607   3.82972   3.83541
 Alpha virt. eigenvalues --    3.83765   3.83888   3.84803   3.84926   3.85371
 Alpha virt. eigenvalues --    3.86023   3.86350   3.86651   3.86929   3.87301
 Alpha virt. eigenvalues --    3.88101   3.88874   3.89578   3.89926   3.90445
 Alpha virt. eigenvalues --    3.91233   3.91630   3.93200   3.93400   3.93512
 Alpha virt. eigenvalues --    3.93797   3.94385   3.95173   3.95847   3.96657
 Alpha virt. eigenvalues --    3.96787   3.97222   3.98022   3.98426   3.99182
 Alpha virt. eigenvalues --    3.99696   4.00568   4.00931   4.01333   4.01715
 Alpha virt. eigenvalues --    4.02265   4.02804   4.02981   4.03714   4.04294
 Alpha virt. eigenvalues --    4.04553   4.05241   4.05576   4.05937   4.06246
 Alpha virt. eigenvalues --    4.06614   4.06918   4.07564   4.09079   4.09369
 Alpha virt. eigenvalues --    4.09742   4.10850   4.11287   4.11942   4.12362
 Alpha virt. eigenvalues --    4.12558   4.13739   4.14105   4.14237   4.14516
 Alpha virt. eigenvalues --    4.15102   4.15239   4.15528   4.15869   4.16488
 Alpha virt. eigenvalues --    4.16605   4.16994   4.17433   4.17677   4.18460
 Alpha virt. eigenvalues --    4.18570   4.19362   4.19815   4.20164   4.20221
 Alpha virt. eigenvalues --    4.20960   4.21195   4.21423   4.21692   4.22471
 Alpha virt. eigenvalues --    4.22714   4.23370   4.23733   4.24037   4.24879
 Alpha virt. eigenvalues --    4.25242   4.25302   4.25719   4.25972   4.26402
 Alpha virt. eigenvalues --    4.26529   4.26831   4.27278   4.27479   4.28135
 Alpha virt. eigenvalues --    4.28676   4.29063   4.29795   4.30332   4.31415
 Alpha virt. eigenvalues --    4.31610   4.32391   4.32635   4.32820   4.33619
 Alpha virt. eigenvalues --    4.33866   4.34313   4.34590   4.34904   4.35042
 Alpha virt. eigenvalues --    4.35513   4.36001   4.36856   4.37291   4.37356
 Alpha virt. eigenvalues --    4.37624   4.38299   4.38917   4.39078   4.39539
 Alpha virt. eigenvalues --    4.40811   4.42077   4.42718   4.43133   4.43727
 Alpha virt. eigenvalues --    4.44082   4.44439   4.45036   4.45437   4.45740
 Alpha virt. eigenvalues --    4.46630   4.47276   4.47835   4.48388   4.48965
 Alpha virt. eigenvalues --    4.49502   4.50387   4.50866   4.51551   4.52613
 Alpha virt. eigenvalues --    4.53627   4.53978   4.54255   4.54347   4.55110
 Alpha virt. eigenvalues --    4.55259   4.55863   4.56197   4.56848   4.57416
 Alpha virt. eigenvalues --    4.58196   4.58955   4.59736   4.60372   4.61527
 Alpha virt. eigenvalues --    4.62562   4.62736   4.65529   4.66509   4.67098
 Alpha virt. eigenvalues --    4.69595   4.70552   4.71671   4.73349   4.73717
 Alpha virt. eigenvalues --    4.74349   4.75030   4.75648   4.76442   4.76585
 Alpha virt. eigenvalues --    4.76757   4.77716   4.78430   4.79123   4.80065
 Alpha virt. eigenvalues --    4.80409   4.81551   4.82383   4.83195   4.84360
 Alpha virt. eigenvalues --    4.85386   4.85461   4.86647   4.87631   4.88664
 Alpha virt. eigenvalues --    4.89851   4.90212   4.90817   4.93380   4.94265
 Alpha virt. eigenvalues --    4.94786   4.95937   4.97064   4.98198   4.98476
 Alpha virt. eigenvalues --    4.99988   5.00937   5.03398   5.03647   5.04356
 Alpha virt. eigenvalues --    5.05995   5.06544   5.07650   5.08658   5.09020
 Alpha virt. eigenvalues --    5.09748   5.10633   5.10943   5.11616   5.12173
 Alpha virt. eigenvalues --    5.13151   5.14334   5.15148   5.15580   5.15742
 Alpha virt. eigenvalues --    5.16682   5.18170   5.18677   5.19329   5.20229
[...]
    35 H(1)   Bbb    -0.0025    -1.332    -0.475    -0.444  0.2742 -0.0542  0.9601
              Bcc     0.0054     2.885     1.030     0.962 -0.5698  0.7952  0.2076
 
              Baa    -0.0025    -1.317    -0.470    -0.439  0.5113  0.7116  0.4819
    36 H(1)   Bbb    -0.0019    -1.022    -0.365    -0.341 -0.1299 -0.4903  0.8618
              Bcc     0.0044     2.339     0.834     0.780  0.8495 -0.5032 -0.1583
 
              Baa    -0.0089    -1.189    -0.424    -0.397  0.2940  0.9034 -0.3121
    37 C(13)  Bbb    -0.0071    -0.951    -0.339    -0.317  0.5561  0.1039  0.8246
              Bcc     0.0159     2.140     0.764     0.714  0.7774 -0.4160 -0.4719
 
              Baa    -0.0064    -3.403    -1.214    -1.135  0.4640  0.8531 -0.2385
    38 H(1)   Bbb    -0.0049    -2.595    -0.926    -0.866  0.6520 -0.1466  0.7439
              Bcc     0.0112     5.998     2.140     2.001 -0.5997  0.5007  0.6243
 
              Baa    -0.0058    -0.772    -0.275    -0.258 -0.0999  0.9384  0.3308
    39 C(13)  Bbb    -0.0049    -0.652    -0.233    -0.218 -0.1086 -0.3408  0.9338
              Bcc     0.0106     1.424     0.508     0.475  0.9891  0.0574  0.1360
 
              Baa    -0.0045    -2.379    -0.849    -0.794  0.2299  0.9688  0.0923
    40 H(1)   Bbb    -0.0031    -1.666    -0.595    -0.556 -0.3032 -0.0188  0.9527
              Bcc     0.0076     4.046     1.444     1.350  0.9248 -0.2470  0.2895
 
              Baa    -0.0291     2.104     0.751     0.702 -0.0674  0.3785  0.9231
    41 O(17)  Bbb    -0.0036     0.262     0.094     0.087 -0.6587  0.6781 -0.3261
              Bcc     0.0327    -2.366    -0.844    -0.789  0.7494  0.6300 -0.2036
 
              Baa    -0.0395     2.856     1.019     0.953  0.5204 -0.2267  0.8233
    42 O(17)  Bbb    -0.0357     2.586     0.923     0.862  0.8437 -0.0124 -0.5367
              Bcc     0.0752    -5.441    -1.942    -1.815  0.1319  0.9739  0.1849
 
              Baa    -0.7750    37.015    13.208    12.347  0.7093  0.6454  0.2834
    43 Ni(61) Bbb     0.0169    -0.806    -0.288    -0.269 -0.4962  0.1716  0.8511
              Bcc     0.7581   -36.209   -12.920   -12.078 -0.5007  0.7443 -0.4419
 
              Baa    -0.2069   -10.827    -3.863    -3.612  0.4522 -0.6216  0.6396
    44 Cl(35) Bbb    -0.1775    -9.291    -3.315    -3.099  0.7788 -0.0743 -0.6228
              Bcc     0.3844    20.119     7.179     6.711  0.4346  0.7798  0.4505
 
              Baa    -0.0049    -0.652    -0.233    -0.217  0.4036  0.3307  0.8531
    45 C(13)  Bbb    -0.0036    -0.489    -0.174    -0.163 -0.2427  0.9377 -0.2487
              Bcc     0.0085     1.141     0.407     0.380  0.8822  0.1066 -0.4587
 
              Baa    -0.0025    -0.329    -0.117    -0.110 -0.0888  0.9468 -0.3093
    46 C(13)  Bbb    -0.0022    -0.300    -0.107    -0.100  0.1633  0.3202  0.9332
              Bcc     0.0047     0.629     0.224     0.210  0.9826  0.0324 -0.1831
 
              Baa    -0.0032    -1.725    -0.616    -0.576 -0.1758  0.9401  0.2920
    47 H(1)   Bbb    -0.0031    -1.628    -0.581    -0.543  0.0564 -0.2865  0.9564
              Bcc     0.0063     3.354     1.197     1.119  0.9828  0.1846 -0.0026
 
              Baa    -0.0019    -1.035    -0.369    -0.345  0.1326  0.9327  0.3355
    48 H(1)   Bbb    -0.0017    -0.918    -0.327    -0.306  0.0263 -0.3416  0.9395
              Bcc     0.0037     1.953     0.697     0.651  0.9908 -0.1158 -0.0698
 
              Baa    -0.0015    -0.792    -0.283    -0.264 -0.0662  0.9536  0.2938
    49 H(1)   Bbb    -0.0014    -0.772    -0.275    -0.257  0.2347 -0.2713  0.9334
              Bcc     0.0029     1.563     0.558     0.521  0.9698  0.1307 -0.2058
 
              Baa    -0.0018    -0.242    -0.086    -0.081  0.2051  0.9721 -0.1136
    50 C(13)  Bbb    -0.0015    -0.200    -0.071    -0.067  0.5716 -0.0248  0.8201
              Bcc     0.0033     0.442     0.158     0.147  0.7945 -0.2331 -0.5608
 
              Baa    -0.0016    -0.860    -0.307    -0.287  0.3164  0.9468 -0.0588
    51 H(1)   Bbb    -0.0014    -0.773    -0.276    -0.258  0.6122 -0.1565  0.7751
              Bcc     0.0031     1.633     0.583     0.545  0.7246 -0.2812 -0.6291
 
              Baa    -0.0011    -0.597    -0.213    -0.199  0.2063  0.9661  0.1550
    52 H(1)   Bbb    -0.0011    -0.578    -0.206    -0.193  0.4712 -0.2369  0.8496
              Bcc     0.0022     1.176     0.419     0.392  0.8575 -0.1022 -0.5041
 
              Baa    -0.0014    -0.742    -0.265    -0.247  0.5062  0.7780  0.3722
    53 H(1)   Bbb    -0.0013    -0.667    -0.238    -0.223  0.1816 -0.5180  0.8359
              Bcc     0.0026     1.409     0.503     0.470  0.8431 -0.3555 -0.4035
 
              Baa    -0.0035    -0.468    -0.167    -0.156  0.3545  0.6473  0.6748
    54 C(13)  Bbb    -0.0029    -0.392    -0.140    -0.131 -0.4789  0.7455 -0.4635
              Bcc     0.0064     0.860     0.307     0.287  0.8031  0.1589 -0.5743
 
              Baa    -0.0048    -2.585    -0.922    -0.862  0.1495  0.6263  0.7651
    55 H(1)   Bbb    -0.0040    -2.132    -0.761    -0.711 -0.5781  0.6831 -0.4462
              Bcc     0.0088     4.717     1.683     1.573  0.8021  0.3756 -0.4642
 
              Baa    -0.0019    -1.003    -0.358    -0.335  0.2603  0.7097  0.6546
    56 H(1)   Bbb    -0.0017    -0.887    -0.316    -0.296 -0.5383  0.6696 -0.5118
              Bcc     0.0035     1.890     0.674     0.630  0.8016  0.2191 -0.5563
 
              Baa    -0.0037    -1.963    -0.700    -0.655  0.3670  0.8295  0.4209
    57 H(1)   Bbb    -0.0030    -1.602    -0.572    -0.535  0.6508 -0.5523  0.5210
              Bcc     0.0067     3.565     1.272     1.189 -0.6646 -0.0827  0.7426
 
              Baa    -0.0059    -0.792    -0.283    -0.264  0.0486 -0.5442  0.8376
    58 C(13)  Bbb    -0.0032    -0.431    -0.154    -0.144  0.7328 -0.5504 -0.4001
              Bcc     0.0091     1.222     0.436     0.408  0.6787  0.6332  0.3720
 
              Baa    -0.0025    -0.334    -0.119    -0.111 -0.5002  0.8318 -0.2405
    59 C(13)  Bbb    -0.0021    -0.286    -0.102    -0.095 -0.1633  0.1821  0.9696
              Bcc     0.0046     0.620     0.221     0.207  0.8504  0.5243  0.0447
 
              Baa    -0.0034    -1.826    -0.652    -0.609  0.5321 -0.5912  0.6061
    60 H(1)   Bbb    -0.0028    -1.487    -0.531    -0.496 -0.3765  0.4759  0.7948
              Bcc     0.0062     3.313     1.182     1.105  0.7583  0.6512 -0.0307
 
              Baa    -0.0020    -1.068    -0.381    -0.356 -0.4502  0.8873 -0.0996
    61 H(1)   Bbb    -0.0018    -0.970    -0.346    -0.324  0.0655  0.1440  0.9874
              Bcc     0.0038     2.038     0.727     0.680  0.8905  0.4380 -0.1229
 
              Baa    -0.0016    -0.869    -0.310    -0.290  0.3233 -0.5398  0.7772
    62 H(1)   Bbb    -0.0015    -0.790    -0.282    -0.264 -0.4816  0.6132  0.6262
              Bcc     0.0031     1.660     0.592     0.554  0.8146  0.5767  0.0617
 
              Baa    -0.0036    -0.486    -0.174    -0.162 -0.1407  0.8547 -0.4997
    63 C(13)  Bbb    -0.0025    -0.335    -0.120    -0.112 -0.5306  0.3610  0.7669
              Bcc     0.0061     0.822     0.293     0.274  0.8359  0.3730  0.4027
 
              Baa    -0.0031    -1.676    -0.598    -0.559 -0.0789  0.9800 -0.1827
    64 H(1)   Bbb    -0.0021    -1.120    -0.400    -0.374 -0.5425  0.1115  0.8326
              Bcc     0.0052     2.797     0.998     0.933  0.8363  0.1648  0.5229
 
              Baa    -0.0057    -3.048    -1.088    -1.017 -0.1653  0.7692 -0.6173
    65 H(1)   Bbb    -0.0031    -1.630    -0.582    -0.544 -0.6110  0.4115  0.6763
              Bcc     0.0088     4.678     1.669     1.560  0.7742  0.4889  0.4019
 
              Baa    -0.0022    -1.170    -0.418    -0.390 -0.1354  0.7843 -0.6054
    66 H(1)   Bbb    -0.0016    -0.862    -0.308    -0.288 -0.5891  0.4276  0.6857
              Bcc     0.0038     2.033     0.725     0.678  0.7966  0.4495  0.4042
 
              Baa    -0.0020    -0.266    -0.095    -0.089 -0.1339  0.9905  0.0312
    67 C(13)  Bbb    -0.0017    -0.227    -0.081    -0.076 -0.3054 -0.0711  0.9496
              Bcc     0.0037     0.493     0.176     0.165  0.9428  0.1176  0.3120
 
              Baa    -0.0014    -0.724    -0.258    -0.242 -0.1414  0.9314  0.3354
    68 H(1)   Bbb    -0.0012    -0.637    -0.227    -0.213 -0.2946 -0.3630  0.8840
              Bcc     0.0026     1.362     0.486     0.454  0.9451  0.0262  0.3257
 
              Baa    -0.0011    -0.602    -0.215    -0.201 -0.0335 -0.6084  0.7930
    69 H(1)   Bbb    -0.0010    -0.534    -0.191    -0.178 -0.3951  0.7368  0.5486
              Bcc     0.0021     1.136     0.405     0.379  0.9180  0.2950  0.2650
 
              Baa    -0.0013    -0.698    -0.249    -0.233 -0.0897  0.9632 -0.2532
    70 H(1)   Bbb    -0.0011    -0.575    -0.205    -0.192 -0.0965  0.2447  0.9648
              Bcc     0.0024     1.273     0.454     0.425  0.9913  0.1110  0.0710
 
              Baa    -0.0103    -1.379    -0.492    -0.460 -0.0690 -0.4108  0.9091
    71 C(13)  Bbb     0.0006     0.079     0.028     0.026  0.8761 -0.4608 -0.1417
              Bcc     0.0097     1.301     0.464     0.434  0.4772  0.7867  0.3917
 
              Baa    -0.0092    -1.235    -0.441    -0.412  0.8952 -0.2980 -0.3312
    72 C(13)  Bbb    -0.0040    -0.539    -0.192    -0.180  0.4131  0.8339  0.3660
              Bcc     0.0132     1.774     0.633     0.592  0.1672 -0.4644  0.8697
 
              Baa    -0.0107    -1.431    -0.510    -0.477  0.6846 -0.6113 -0.3970
    73 C(13)  Bbb     0.0011     0.142     0.051     0.048  0.7286  0.5908  0.3466
              Bcc     0.0096     1.288     0.460     0.430  0.0226 -0.5265  0.8499
 
              Baa    -0.0061    -0.817    -0.292    -0.273  0.2299 -0.4087  0.8832
    74 C(13)  Bbb     0.0013     0.170     0.061     0.057  0.7784 -0.4675 -0.4189
              Bcc     0.0048     0.647     0.231     0.216  0.5841  0.7838  0.2107
 
              Baa    -0.0019    -0.999    -0.357    -0.333  0.1886 -0.3655  0.9115
    75 H(1)   Bbb    -0.0011    -0.591    -0.211    -0.197  0.9761 -0.0324 -0.2149
              Bcc     0.0030     1.591     0.568     0.531  0.1081  0.9302  0.3507
 
              Baa    -0.0058    -0.780    -0.278    -0.260  0.2654 -0.3982  0.8780
    76 C(13)  Bbb    -0.0002    -0.025    -0.009    -0.008  0.6260 -0.6214 -0.4711
              Bcc     0.0060     0.805     0.287     0.269  0.7333  0.6747  0.0843
 
              Baa    -0.0067    -3.551    -1.267    -1.184 -0.1562  0.0290  0.9873
    77 H(1)   Bbb    -0.0064    -3.402    -1.214    -1.135 -0.6468  0.7524 -0.1244
              Bcc     0.0130     6.953     2.481     2.319  0.7465  0.6581  0.0988
 
              Baa    -0.0091    -1.223    -0.436    -0.408  0.6683 -0.5947 -0.4469
    78 C(13)  Bbb    -0.0050    -0.673    -0.240    -0.224  0.7181  0.6726  0.1786
              Bcc     0.0141     1.895     0.676     0.632  0.1944 -0.4403  0.8766
 
              Baa    -0.0011    -0.572    -0.204    -0.191  0.2534 -0.3890  0.8857
    79 H(1)   Bbb    -0.0006    -0.316    -0.113    -0.105  0.8184 -0.4019 -0.4107
              Bcc     0.0017     0.888     0.317     0.296  0.5158  0.8289  0.2165
 
              Baa    -0.0018    -0.965    -0.344    -0.322  0.2026 -0.3129  0.9279
    80 H(1)   Bbb    -0.0015    -0.813    -0.290    -0.271 -0.5581  0.7417  0.3720
              Bcc     0.0033     1.778     0.634     0.593  0.8046  0.5933  0.0243
 
              Baa    -0.0007    -0.093    -0.033    -0.031  0.2856 -0.4250  0.8590
    81 C(13)  Bbb    -0.0006    -0.076    -0.027    -0.026  0.7644 -0.4396 -0.4717
              Bcc     0.0013     0.169     0.060     0.057  0.5780  0.7913  0.1993
 
              Baa    -0.0006    -0.329    -0.117    -0.110  0.0763 -0.1584  0.9844
    82 H(1)   Bbb    -0.0005    -0.285    -0.102    -0.095  0.8549 -0.4978 -0.1463
              Bcc     0.0011     0.613     0.219     0.205  0.5132  0.8527  0.0974
 
              Baa    -0.0006    -0.334    -0.119    -0.112 -0.5308  0.6427 -0.5524
    83 H(1)   Bbb    -0.0005    -0.284    -0.101    -0.095 -0.6220  0.1473  0.7691
              Bcc     0.0012     0.618     0.221     0.206  0.5756  0.7518  0.3216
 
              Baa    -0.0005    -0.275    -0.098    -0.092  0.7131 -0.6171 -0.3327
    84 H(1)   Bbb    -0.0005    -0.262    -0.094    -0.088  0.1518 -0.3274  0.9326
              Bcc     0.0010     0.537     0.192     0.179  0.6844  0.7156  0.1398
 
              Baa    -0.0101     0.734     0.262     0.245  0.7906 -0.4495 -0.4158
    85 O(17)  Bbb    -0.0080     0.580     0.207     0.193  0.5725  0.7834  0.2417
              Bcc     0.0182    -1.314    -0.469    -0.438  0.2171 -0.4292  0.8767
 
              Baa    -0.0158    -8.434    -3.009    -2.813  0.1889  0.6776  0.7107
    86 H(1)   Bbb    -0.0102    -5.443    -1.942    -1.816  0.8022 -0.5239  0.2863
              Bcc     0.0260    13.877     4.952     4.629 -0.5664 -0.5161  0.6425
 
              Baa    -0.0062    -0.827    -0.295    -0.276  0.2917  0.7122  0.6385
    87 C(13)  Bbb    -0.0014    -0.186    -0.066    -0.062  0.8733  0.0740 -0.4816
              Bcc     0.0075     1.013     0.361     0.338 -0.3903  0.6981 -0.6003
 
              Baa    -0.0051    -0.689    -0.246    -0.230  0.7455  0.5439 -0.3852
    88 C(13)  Bbb    -0.0009    -0.118    -0.042    -0.039 -0.0825  0.6488  0.7564
              Bcc     0.0060     0.807     0.288     0.269  0.6614 -0.5322  0.5286
 
              Baa    -0.0048    -0.642    -0.229    -0.214  0.7485  0.6460 -0.1498
    89 C(13)  Bbb    -0.0019    -0.252    -0.090    -0.084 -0.0318  0.2606  0.9649
              Bcc     0.0067     0.894     0.319     0.298 -0.6624  0.7175 -0.2156
 
              Baa    -0.0025    -0.337    -0.120    -0.113 -0.0936  0.6762  0.7307
    90 C(13)  Bbb     0.0001     0.018     0.006     0.006  0.9752  0.2101 -0.0695
              Bcc     0.0024     0.320     0.114     0.107 -0.2005  0.7061 -0.6791
 
              Baa    -0.0034    -1.802    -0.643    -0.601  0.1805  0.9611  0.2091
    91 H(1)   Bbb    -0.0016    -0.842    -0.300    -0.281 -0.6549 -0.0412  0.7546
              Bcc     0.0050     2.644     0.943     0.882  0.7338 -0.2732  0.6220
 
              Baa    -0.0024    -0.316    -0.113    -0.105  0.3584  0.5321  0.7671
    92 C(13)  Bbb    -0.0004    -0.048    -0.017    -0.016  0.8006  0.2475 -0.5458
              Bcc     0.0027     0.364     0.130     0.122 -0.4802  0.8097 -0.3373
 
              Baa    -0.0041    -2.193    -0.782    -0.731  0.5636  0.3281  0.7581
    93 H(1)   Bbb    -0.0031    -1.677    -0.598    -0.559  0.7018  0.2940 -0.6489
              Bcc     0.0073     3.870     1.381     1.291 -0.4358  0.8977 -0.0646
 
              Baa    -0.0017    -0.233    -0.083    -0.078  0.5415  0.7733 -0.3299
    94 C(13)  Bbb    -0.0007    -0.088    -0.032    -0.029 -0.0376  0.4142  0.9094
              Bcc     0.0024     0.321     0.115     0.107  0.8399 -0.4800  0.2533
 
              Baa    -0.0010    -0.544    -0.194    -0.182  0.2043  0.9371  0.2830
    95 H(1)   Bbb    -0.0009    -0.478    -0.170    -0.159 -0.6254 -0.0974  0.7742
              Bcc     0.0019     1.022     0.365     0.341  0.7531 -0.3352  0.5662
 
              Baa    -0.0013    -0.703    -0.251    -0.234  0.6556  0.5647  0.5013
    96 H(1)   Bbb    -0.0011    -0.570    -0.203    -0.190 -0.4262 -0.2712  0.8630
              Bcc     0.0024     1.273     0.454     0.425 -0.6233  0.7795 -0.0628
 
              Baa    -0.0008    -0.441    -0.157    -0.147  0.6035  0.7963  0.0414
    97 H(1)   Bbb    -0.0007    -0.361    -0.129    -0.121 -0.2518  0.1410  0.9575
              Bcc     0.0015     0.802     0.286     0.268  0.7566 -0.5882  0.2856
 

 ---------------------------------------------------------------------------------

 1\1\GINC-M9-27-1\SP\UM06L\Gen\C41H46Cl1N4Ni2O3(4)\MALLA1\24-Aug-2022\0
 \\#m06l/gen pseudo=read integral=ultrafine temperature=308 scrf=(read)
 \\Title Card Required\\0,4\C,0,2.403335,-2.502676,2.940191\C,0,1.44983
 3,-2.220061,3.926937\C,0,0.231599,-1.57229,3.581422\C,0,0.045675,-1.19
 1586,2.192837\C,0,2.145527,-2.098747,1.617101\H,0,-0.712164,-1.554562,
 5.558493\H,0,3.336634,-3.032606,3.177318\H,0,1.621302,-2.519173,4.9724
 91\C,0,-0.834384,-1.30132,4.494464\C,0,-2.160665,-0.478376,2.646089\C,
 0,-2.037796,-0.775547,4.017167\H,0,-2.900321,-0.620348,4.681644\N,0,-1
 .108499,-0.61453,1.763472\N,0,1.001117,-1.447095,1.269199\C,0,3.00031,
 -2.389254,0.468876\C,0,-3.38372,-0.142338,1.954916\N,0,2.865038,-1.798
 911,-0.688881\N,0,-3.398866,-0.024334,0.641423\Ni,0,-1.477961,0.228457
 ,0.006657\C,0,0.325574,0.864422,-0.053257\C,0,0.774912,1.886144,0.7238
 06\C,0,-1.360478,0.386983,-2.595236\H,0,-2.107387,-0.254384,-3.091318\
 C,0,-1.813115,1.448108,-1.753457\H,0,-1.05344,2.191792,-1.459651\C,0,-
 0.001678,0.052914,-2.769087\H,0,0.250548,-0.845045,-3.352325\C,0,1.035
 344,0.767804,-2.085717\H,0,0.939401,1.857579,-1.960807\H,0,0.023274,2.
 312632,1.421991\C,0,-5.524929,0.349313,1.563143\H,0,-5.703552,1.441896
 ,1.649797\H,0,-6.467088,-0.192291,1.767861\C,0,4.286726,-3.701136,-0.8
 01461\H,0,3.780149,-4.644329,-1.092742\H,0,5.381185,-3.861084,-0.81369
 2\C,0,3.800787,-2.474098,-1.628193\H,0,3.209393,-2.810715,-2.506918\C,
 0,-4.823665,-0.032528,0.236037\H,0,-5.000647,0.742799,-0.534991\O,0,3.
 894481,-3.397294,0.568043\O,0,-4.561507,-0.027079,2.599302\Ni,0,0.7840
 17,-0.927885,-0.661994\Cl,0,-0.064334,-3.004028,-1.400921\C,0,4.976804
 ,-1.586,-2.170871\C,0,5.888894,-1.09972,-1.024344\H,0,5.315778,-0.5167
 14,-0.273729\H,0,6.389768,-1.937068,-0.495288\H,0,6.68937,-0.441517,-1
 .422378\C,0,5.790268,-2.444701,-3.168528\H,0,5.155117,-2.792765,-4.010
 873\H,0,6.621606,-1.847392,-3.597394\H,0,6.242574,-3.339465,-2.692261\
 C,0,4.424835,-0.365381,-2.932772\H,0,3.955342,0.363828,-2.244251\H,0,5
 .247197,0.165766,-3.456081\H,0,3.675681,-0.663485,-3.696203\C,0,-5.267
 861,-1.418742,-0.364488\C,0,-5.127302,-2.557997,0.668397\H,0,-4.073548
 ,-2.681839,0.992834\H,0,-5.753305,-2.39558,1.57055\H,0,-5.446519,-3.52
 0298,0.216251\C,0,-4.397522,-1.74757,-1.595147\H,0,-4.49998,-0.965483,
 -2.374979\H,0,-3.324494,-1.834708,-1.328634\H,0,-4.71543,-2.713033,-2.
 041749\C,0,-6.74159,-1.293703,-0.812885\H,0,-6.869446,-0.476258,-1.553
 983\H,0,-7.078609,-2.237941,-1.289401\H,0,-7.428267,-1.093564,0.036789
 \C,0,2.081808,2.552708,0.758444\C,0,2.211405,3.826984,1.366629\C,0,3.2
 61516,1.968031,0.218654\C,0,3.438128,4.50866,1.417045\H,0,1.320449,4.3
 02735,1.809345\C,0,4.487859,2.633539,0.262444\H,0,3.206069,0.953666,-0
 .20646\C,0,4.591765,3.916283,0.855279\H,0,3.484966,5.496793,1.89645\H,
 0,5.399519,2.172307,-0.147854\C,0,5.997807,5.765963,1.441978\H,0,5.375
 5,6.538854,0.937769\H,0,5.747007,5.752966,2.526334\H,0,7.065517,6.0289
 81,1.322424\O,0,5.831941,4.483762,0.846488\H,0,2.07291,0.452547,-2.268
 136\C,0,-3.161141,2.06231,-1.840901\C,0,-4.088457,1.752667,-2.868476\C
 ,0,-3.525777,3.070737,-0.909457\C,0,-5.333673,2.401292,-2.943341\H,0,-
 3.821519,1.015078,-3.640781\C,0,-4.76893,3.7163,-0.980776\H,0,-2.81388
 9,3.340292,-0.11191\C,0,-5.68595,3.380074,-1.996486\H,0,-6.030431,2.14
 5974,-3.757948\H,0,-5.024461,4.492983,-0.241907\H,0,-6.660968,3.888853
 ,-2.057592\\Version=ES64L-G16RevB.01\State=4-A\HF=-2834.1762256\S2=3.8
 31855\S2-1=0.\S2A=3.752289\RMSD=2.950e-09\Dipole=0.1996116,2.2592247,1
 .5686219\Quadrupole=23.0981007,-15.9342905,-7.1638102,-5.241479,-3.812
 4235,0.6203315\PG=C01 [X(C41H46Cl1N4Ni2O3)]\\@


 LAWS OF PROGRAMMING DEFINITION:  A WORKING PROGRAM
                                  IS ONE THAT HAS
                                  ONLY UNOBSERVED
                                  BUGS.
 Job cpu time:       1 days  3 hours 21 minutes 15.1 seconds.
 Elapsed time:       0 days  2 hours 17 minutes  0.7 seconds.
 File lengths (MBytes):  RWF=   3724 Int=      0 D2E=      0 Chk=    238 Scr=      1
 Normal termination of Gaussian 16 at Wed Aug 24 17:33:41 2022.
