 Entering Gaussian System, Link 0=g16
 Input=Pro_R_E_tsd1_4_mode_free.com
 Output=Pro_R_E_tsd1_4_mode_free.log
 Initial command:
 /apps/gaussian16/B.01/AVX2/g16/l1.exe "/tmp/51295240/Gau-1904.inp" -scrdir="/tmp/51295240/"
 Entering Link 1 = /apps/gaussian16/B.01/AVX2/g16/l1.exe PID=      1919.
  
 Copyright (c) 1988-2017, Gaussian, Inc.  All Rights Reserved.
  
 This is part of the Gaussian(R) 16 program.  It is based on
 the Gaussian(R) 09 system (copyright 2009, Gaussian, Inc.),
 the Gaussian(R) 03 system (copyright 2003, Gaussian, Inc.),
 the Gaussian(R) 98 system (copyright 1998, Gaussian, Inc.),
 the Gaussian(R) 94 system (copyright 1995, Gaussian, Inc.),
 the Gaussian 92(TM) system (copyright 1992, Gaussian, Inc.),
 the Gaussian 90(TM) system (copyright 1990, Gaussian, Inc.),
 the Gaussian 88(TM) system (copyright 1988, Gaussian, Inc.),
 the Gaussian 86(TM) system (copyright 1986, Carnegie Mellon
 University), and the Gaussian 82(TM) system (copyright 1983,
 Carnegie Mellon University). Gaussian is a federally registered
 trademark of Gaussian, Inc.
  
 This software contains proprietary and confidential information,
 including trade secrets, belonging to Gaussian, Inc.
  
 This software is provided under written license and may be
 used, copied, transmitted, or stored only in accord with that
 written license.
  
 The following legend is applicable only to US Government
 contracts under FAR:
  
                    RESTRICTED RIGHTS LEGEND
  
 Use, reproduction and disclosure by the US Government is
 subject to restrictions as set forth in subparagraphs (a)
 and (c) of the Commercial Computer Software - Restricted
 Rights clause in FAR 52.227-19.
  
 Gaussian, Inc.
 340 Quinnipiac St., Bldg. 40, Wallingford CT 06492
  
  
 ---------------------------------------------------------------
 Warning -- This program may not be used in any manner that
 competes with the business of Gaussian, Inc. or will provide
 assistance to any competitor of Gaussian, Inc.  The licensee
 of this program is prohibited from giving any competitor of
 Gaussian, Inc. access to this program.  By using this program,
 the user acknowledges that Gaussian, Inc. is engaged in the
 business of creating and licensing software in the field of
 computational chemistry and represents and warrants to the
 licensee that it is not a competitor of Gaussian, Inc. and that
 it will not use this program in any manner prohibited above.
 ---------------------------------------------------------------
  

 Cite this work as:
 Gaussian 16, Revision B.01,
 M. J. Frisch, G. W. Trucks, H. B. Schlegel, G. E. Scuseria, 
 M. A. Robb, J. R. Cheeseman, G. Scalmani, V. Barone, 
 G. A. Petersson, H. Nakatsuji, X. Li, M. Caricato, A. V. Marenich, 
 J. Bloino, B. G. Janesko, R. Gomperts, B. Mennucci, H. P. Hratchian, 
 J. V. Ortiz, A. F. Izmaylov, J. L. Sonnenberg, D. Williams-Young, 
 F. Ding, F. Lipparini, F. Egidi, J. Goings, B. Peng, A. Petrone, 
 T. Henderson, D. Ranasinghe, V. G. Zakrzewski, J. Gao, N. Rega, 
 G. Zheng, W. Liang, M. Hada, M. Ehara, K. Toyota, R. Fukuda, 
 J. Hasegawa, M. Ishida, T. Nakajima, Y. Honda, O. Kitao, H. Nakai, 
 T. Vreven, K. Throssell, J. A. Montgomery, Jr., J. E. Peralta, 
 F. Ogliaro, M. J. Bearpark, J. J. Heyd, E. N. Brothers, K. N. Kudin, 
 V. N. Staroverov, T. A. Keith, R. Kobayashi, J. Normand, 
 K. Raghavachari, A. P. Rendell, J. C. Burant, S. S. Iyengar, 
 J. Tomasi, M. Cossi, J. M. Millam, M. Klene, C. Adamo, R. Cammi, 
 J. W. Ochterski, R. L. Martin, K. Morokuma, O. Farkas, 
 J. B. Foresman, and D. J. Fox, Gaussian, Inc., Wallingford CT, 2016.
 
 ******************************************
 Gaussian 16:  ES64L-G16RevB.01 20-Dec-2017
                 4-Aug-2022 
 ******************************************
 %nprocshared=12
 Will use up to   12 processors via shared memory.
 %mem=64GB
 ----------------------------------------------------------------------
 #opt=(calcfc,ts,noeigen) freq=noraman bp86/gen pseudo=read integral=ul
 trafine temperature=308 scrf=(read)
 ----------------------------------------------------------------------
 1/5=1,10=4,11=1,18=20,26=6,38=1,40=2,112=308000/1,3;
 2/9=110,12=2,17=6,18=5,40=1/2;
 3/5=7,11=2,16=1,17=8,25=1,30=1,70=2203,71=2,74=404,75=-5,140=1/1,2,3;
 4//1;
 5/5=2,38=5/2;
 8/6=4,10=90,11=11/1;
 11/6=1,8=1,9=11,15=111,16=1/1,2,10;
 10/6=1,13=1/2;
 6/7=2,8=2,9=2,10=2,28=1/1;
 7/10=1,18=20,25=1/1,2,3,16;
 1/5=1,10=4,11=1,18=20,26=6/3(2);
 2/9=110/2;
 99//99;
 2/9=110/2;
 3/5=7,6=1,11=2,16=1,17=8,25=1,30=1,70=2205,71=1,74=404,75=-5,82=7/1,2,3;
 4/5=5,16=3,69=1/1;
 5/5=2,38=5/2;
 7//1,2,3,16;
 1/5=1,11=1,18=20,26=6/3(-5);
 2/9=110/2;
 6/7=2,8=2,9=2,10=2,19=2,28=1/1;
 99/9=1/99;
 -------------------
 Title Card Required
 -------------------
 Symbolic Z-matrix:
 Charge =  0 Multiplicity = 4
 C                    -1.20859  -2.90025  -3.22662 
 C                    -0.06377  -2.60791  -3.9822 
 C                     1.00883  -1.87075  -3.40203 
 C                     0.83338  -1.40108  -2.0409 
 C                    -1.29324  -2.4084   -1.90914 
 H                     2.41632  -1.90037  -5.0817 
 H                    -2.02559  -3.51037  -3.63787 
 H                     0.0319   -2.97429  -5.01615 
 C                     2.25521  -1.58497  -4.03938 
 C                     3.04062  -0.57882  -1.97856 
 C                     3.27413  -0.9541   -3.31869 
 H                     4.263    -0.77447  -3.76553 
 N                     1.81609  -0.74303  -1.37337 
 N                    -0.3089   -1.64466  -1.35881 
 C                    -2.34953  -2.70474  -0.94725 
 C                     4.046    -0.10111  -1.04848 
 N                    -2.40842  -2.12772   0.2248 
 N                     3.75412   0.1162    0.21763 
 Ni                    1.70732  -0.03226   0.52193 
 C                    -0.0699    1.0323    0.51568 
 C                    -1.0899    0.99283  -0.48456 
 C                     1.52761   1.5385    2.14332 
 H                     2.52612   1.9246    2.39864 
 C                     0.56193   2.2509    1.22312 
 H                    -0.22232   2.7902    1.82426 
 C                     0.88997   0.50833   2.7979 
 H                     1.42351  -0.13944   3.50985 
 C                    -0.53046   0.30023   2.45585 
 H                    -1.20632   1.14928   2.67895 
 H                    -0.73865   0.80271  -1.51586 
 C                     6.00015   0.66372  -0.26417 
 H                     6.17126   1.74388  -0.45639 
 H                     6.97997   0.1587   -0.16535 
 C                    -4.00901  -3.88454  -0.00297 
 H                    -3.82681  -4.92275   0.33925 
 H                    -5.08277  -3.77543  -0.2547 
 C                    -3.47837  -2.80607   0.99497 
 H                    -2.99092  -3.3035    1.86394 
 C                     5.02121   0.41042   0.91992 
 H                     4.89965   1.33913   1.52092 
 O                    -3.24347  -3.67842  -1.22339 
 O                     5.32646   0.10204  -1.43001 
 Ni                   -0.66698  -0.86099   0.47981 
 Cl                    0.85096  -2.46381   1.44801 
 C                    -4.5835   -1.86993   1.58452 
 C                    -5.32296  -1.10744   0.46809 
 H                    -4.61538  -0.52778  -0.15941 
 H                    -5.90005  -1.78718  -0.19426 
 H                    -6.0484   -0.39143   0.90735 
 C                    -5.57774  -2.74476   2.38182 
 H                    -5.06959  -3.27754   3.21402 
 H                    -6.37464  -2.11131   2.82437 
 H                    -6.07996  -3.50501   1.74681 
 C                    -3.92499  -0.86499   2.54726 
 H                    -3.26387  -0.16967   1.99588 
 H                    -4.69787  -0.26137   3.068 
 H                    -3.32039  -1.38426   3.32145 
 C                     5.46031  -0.72101   1.91528 
 C                     5.64587  -2.06451   1.17993 
 H                     4.69802  -2.39498   0.7082 
 H                     6.42894  -2.01141   0.39441 
 H                     5.95413  -2.85371   1.89707 
 C                     4.37639  -0.88003   3.00065 
 H                     4.20252   0.07659   3.53876 
 H                     3.41506  -1.21612   2.56131 
 H                     4.69149  -1.63483   3.75163 
 C                     6.78409  -0.29188   2.58682 
 H                     6.67482   0.68145   3.11219 
 H                     7.09166  -1.04668   3.34028 
 H                     7.61956  -0.19551   1.86161 
 C                    -2.45079   1.53441  -0.43945 
 C                    -3.0174    2.19502   0.68281 
 C                    -3.25368   1.46836  -1.61734 
 C                    -4.30213   2.76122   0.64281 
 H                    -2.43448   2.28952   1.61076 
 C                    -4.52994   2.02711  -1.67249 
 H                    -2.84592   0.96843  -2.51121 
 C                    -5.07351   2.68159  -0.53917 
 H                    -4.68888   3.27066   1.53687 
 H                    -5.13718   1.97426  -2.58936 
 C                    -6.9187    3.87761   0.41523 
 H                    -7.04134   3.20716   1.29508 
 H                    -6.32357   4.76715   0.7202 
 H                    -7.91676   4.21136   0.07477 
 O                    -6.3259    3.19919  -0.68706 
 H                    -0.95511  -0.65239   2.8225 
 C                     1.09228   3.28431   0.23414 
 C                     0.22979   4.31967  -0.19243 
 C                     2.40184   3.2472   -0.28805 
 C                     0.66176   5.28932  -1.11352 
 H                    -0.79699   4.36474   0.20692 
 C                     2.84088   4.22061  -1.20425 
 H                     3.07519   2.43368   0.02012 
 C                     1.97253   5.24459  -1.6224 
 H                    -0.02867   6.08682  -1.43218 
 H                     3.87041   4.177    -1.59515 
 H                     2.31587   6.00623  -2.34073 
 

 GradGradGradGradGradGradGradGradGradGradGradGradGradGradGradGradGradGrad
 Berny optimization.
 Initialization pass.
                           ----------------------------
                           !    Initial Parameters    !
                           ! (Angstroms and Degrees)  !
 --------------------------                            --------------------------
 ! Name  Definition              Value          Derivative Info.                !
 --------------------------------------------------------------------------------
 ! R1    R(1,2)                  1.4025         calculate D2E/DX2 analytically  !
 ! R2    R(1,5)                  1.4088         calculate D2E/DX2 analytically  !
 ! R3    R(1,7)                  1.0995         calculate D2E/DX2 analytically  !
 ! R4    R(2,3)                  1.425          calculate D2E/DX2 analytically  !
 ! R5    R(2,8)                  1.1011         calculate D2E/DX2 analytically  !
 ! R6    R(3,4)                  1.4505         calculate D2E/DX2 analytically  !
 ! R7    R(3,9)                  1.4288         calculate D2E/DX2 analytically  !
 ! R8    R(4,13)                 1.3581         calculate D2E/DX2 analytically  !
 ! R9    R(4,14)                 1.3525         calculate D2E/DX2 analytically  !
 ! R10   R(5,14)                 1.362          calculate D2E/DX2 analytically  !
 ! R11   R(5,15)                 1.459          calculate D2E/DX2 analytically  !
 ! R12   R(6,9)                  1.1009         calculate D2E/DX2 analytically  !
 ! R13   R(9,11)                 1.3984         calculate D2E/DX2 analytically  !
 ! R14   R(10,11)                1.4111         calculate D2E/DX2 analytically  !
 ! R15   R(10,13)                1.3758         calculate D2E/DX2 analytically  !
 ! R16   R(10,16)                1.4505         calculate D2E/DX2 analytically  !
 ! R17   R(11,12)                1.0999         calculate D2E/DX2 analytically  !
 ! R18   R(13,19)                2.0271         calculate D2E/DX2 analytically  !
 ! R19   R(14,43)                2.0305         calculate D2E/DX2 analytically  !
 ! R20   R(15,17)                1.3077         calculate D2E/DX2 analytically  !
 ! R21   R(15,41)                1.3503         calculate D2E/DX2 analytically  !
 ! R22   R(16,18)                1.3174         calculate D2E/DX2 analytically  !
 ! R23   R(16,42)                1.3514         calculate D2E/DX2 analytically  !
 ! R24   R(17,37)                1.4826         calculate D2E/DX2 analytically  !
 ! R25   R(18,19)                2.0746         calculate D2E/DX2 analytically  !
 ! R26   R(18,39)                1.4783         calculate D2E/DX2 analytically  !
 ! R27   R(19,20)                2.0717         calculate D2E/DX2 analytically  !
 ! R28   R(19,22)                2.2646         calculate D2E/DX2 analytically  !
 ! R29   R(19,43)                2.5151         calculate D2E/DX2 analytically  !
 ! R30   R(20,21)                1.4291         calculate D2E/DX2 analytically  !
 ! R31   R(20,24)                1.5442         calculate D2E/DX2 analytically  !
 ! R32   R(20,43)                1.9855         calculate D2E/DX2 analytically  !
 ! R33   R(21,30)                1.1059         calculate D2E/DX2 analytically  !
 ! R34   R(21,43)                2.132          calculate D2E/DX2 analytically  !
 ! R35   R(21,71)                1.4654         calculate D2E/DX2 analytically  !
 ! R36   R(22,23)                1.1006         calculate D2E/DX2 analytically  !
 ! R37   R(22,24)                1.5122         calculate D2E/DX2 analytically  !
 ! R38   R(22,26)                1.3771         calculate D2E/DX2 analytically  !
 ! R39   R(24,25)                1.1257         calculate D2E/DX2 analytically  !
 ! R40   R(24,87)                1.5256         calculate D2E/DX2 analytically  !
 ! R41   R(26,27)                1.1005         calculate D2E/DX2 analytically  !
 ! R42   R(26,28)                1.4758         calculate D2E/DX2 analytically  !
 ! R43   R(28,29)                1.1079         calculate D2E/DX2 analytically  !
 ! R44   R(28,86)                1.1056         calculate D2E/DX2 analytically  !
 ! R45   R(31,32)                1.1104         calculate D2E/DX2 analytically  !
 ! R46   R(31,33)                1.1067         calculate D2E/DX2 analytically  !
 ! R47   R(31,39)                1.5571         calculate D2E/DX2 analytically  !
 ! R48   R(31,42)                1.459          calculate D2E/DX2 analytically  !
 ! R49   R(34,35)                1.1082         calculate D2E/DX2 analytically  !
 ! R50   R(34,36)                1.1083         calculate D2E/DX2 analytically  !
 ! R51   R(34,37)                1.5622         calculate D2E/DX2 analytically  !
 ! R52   R(34,41)                1.4553         calculate D2E/DX2 analytically  !
 ! R53   R(37,38)                1.1136         calculate D2E/DX2 analytically  !
 ! R54   R(37,45)                1.5637         calculate D2E/DX2 analytically  !
 ! R55   R(39,40)                1.1129         calculate D2E/DX2 analytically  !
 ! R56   R(39,58)                1.5696         calculate D2E/DX2 analytically  !
 ! R57   R(43,44)                2.4105         calculate D2E/DX2 analytically  !
 ! R58   R(45,46)                1.541          calculate D2E/DX2 analytically  !
 ! R59   R(45,50)                1.5458         calculate D2E/DX2 analytically  !
 ! R60   R(45,54)                1.5396         calculate D2E/DX2 analytically  !
 ! R61   R(46,47)                1.1092         calculate D2E/DX2 analytically  !
 ! R62   R(46,48)                1.1108         calculate D2E/DX2 analytically  !
 ! R63   R(46,49)                1.1099         calculate D2E/DX2 analytically  !
 ! R64   R(50,51)                1.1111         calculate D2E/DX2 analytically  !
 ! R65   R(50,52)                1.11           calculate D2E/DX2 analytically  !
 ! R66   R(50,53)                1.1106         calculate D2E/DX2 analytically  !
 ! R67   R(54,55)                1.1066         calculate D2E/DX2 analytically  !
 ! R68   R(54,56)                1.1103         calculate D2E/DX2 analytically  !
 ! R69   R(54,57)                1.1111         calculate D2E/DX2 analytically  !
 ! R70   R(58,59)                1.5428         calculate D2E/DX2 analytically  !
 ! R71   R(58,63)                1.5421         calculate D2E/DX2 analytically  !
 ! R72   R(58,67)                1.5452         calculate D2E/DX2 analytically  !
 ! R73   R(59,60)                1.1091         calculate D2E/DX2 analytically  !
 ! R74   R(59,61)                1.1104         calculate D2E/DX2 analytically  !
 ! R75   R(59,62)                1.11           calculate D2E/DX2 analytically  !
 ! R76   R(63,64)                1.1113         calculate D2E/DX2 analytically  !
 ! R77   R(63,65)                1.1091         calculate D2E/DX2 analytically  !
 ! R78   R(63,66)                1.1104         calculate D2E/DX2 analytically  !
 ! R79   R(67,68)                1.1115         calculate D2E/DX2 analytically  !
 ! R80   R(67,69)                1.11           calculate D2E/DX2 analytically  !
 ! R81   R(67,70)                1.1105         calculate D2E/DX2 analytically  !
 ! R82   R(71,72)                1.4202         calculate D2E/DX2 analytically  !
 ! R83   R(71,73)                1.427          calculate D2E/DX2 analytically  !
 ! R84   R(72,74)                1.4045         calculate D2E/DX2 analytically  !
 ! R85   R(72,75)                1.0999         calculate D2E/DX2 analytically  !
 ! R86   R(73,76)                1.3943         calculate D2E/DX2 analytically  !
 ! R87   R(73,77)                1.1024         calculate D2E/DX2 analytically  !
 ! R88   R(74,78)                1.4137         calculate D2E/DX2 analytically  !
 ! R89   R(74,79)                1.0993         calculate D2E/DX2 analytically  !
 ! R90   R(76,78)                1.4171         calculate D2E/DX2 analytically  !
 ! R91   R(76,80)                1.101          calculate D2E/DX2 analytically  !
 ! R92   R(78,85)                1.3632         calculate D2E/DX2 analytically  !
 ! R93   R(81,82)                1.113          calculate D2E/DX2 analytically  !
 ! R94   R(81,83)                1.1129         calculate D2E/DX2 analytically  !
 ! R95   R(81,84)                1.1061         calculate D2E/DX2 analytically  !
 ! R96   R(81,85)                1.4236         calculate D2E/DX2 analytically  !
 ! R97   R(87,88)                1.4134         calculate D2E/DX2 analytically  !
 ! R98   R(87,89)                1.4103         calculate D2E/DX2 analytically  !
 ! R99   R(88,90)                1.4054         calculate D2E/DX2 analytically  !
 ! R100  R(88,91)                1.1026         calculate D2E/DX2 analytically  !
 ! R101  R(89,92)                1.407          calculate D2E/DX2 analytically  !
 ! R102  R(89,93)                1.1001         calculate D2E/DX2 analytically  !
 ! R103  R(90,94)                1.4068         calculate D2E/DX2 analytically  !
 ! R104  R(90,95)                1.1019         calculate D2E/DX2 analytically  !
 ! R105  R(92,94)                1.4062         calculate D2E/DX2 analytically  !
 ! R106  R(92,96)                1.1021         calculate D2E/DX2 analytically  !
 ! R107  R(94,97)                1.1018         calculate D2E/DX2 analytically  !
 ! A1    A(2,1,5)              118.6905         calculate D2E/DX2 analytically  !
 ! A2    A(2,1,7)              121.3801         calculate D2E/DX2 analytically  !
 ! A3    A(5,1,7)              119.9253         calculate D2E/DX2 analytically  !
 ! A4    A(1,2,3)              120.1933         calculate D2E/DX2 analytically  !
 ! A5    A(1,2,8)              120.494          calculate D2E/DX2 analytically  !
 ! A6    A(3,2,8)              119.2784         calculate D2E/DX2 analytically  !
 ! A7    A(2,3,4)              117.2913         calculate D2E/DX2 analytically  !
 ! A8    A(2,3,9)              125.3446         calculate D2E/DX2 analytically  !
 ! A9    A(4,3,9)              117.345          calculate D2E/DX2 analytically  !
 ! A10   A(3,4,13)             122.0463         calculate D2E/DX2 analytically  !
 ! A11   A(3,4,14)             121.1353         calculate D2E/DX2 analytically  !
 ! A12   A(13,4,14)            116.7755         calculate D2E/DX2 analytically  !
 ! A13   A(1,5,14)             122.0184         calculate D2E/DX2 analytically  !
 ! A14   A(1,5,15)             126.093          calculate D2E/DX2 analytically  !
 ! A15   A(14,5,15)            111.7607         calculate D2E/DX2 analytically  !
 ! A16   A(3,9,6)              119.5202         calculate D2E/DX2 analytically  !
 ! A17   A(3,9,11)             119.7326         calculate D2E/DX2 analytically  !
 ! A18   A(6,9,11)             120.7026         calculate D2E/DX2 analytically  !
 ! A19   A(11,10,13)           122.2292         calculate D2E/DX2 analytically  !
 ! A20   A(11,10,16)           125.5792         calculate D2E/DX2 analytically  !
 ! A21   A(13,10,16)           111.9729         calculate D2E/DX2 analytically  !
 ! A22   A(9,11,10)            119.2639         calculate D2E/DX2 analytically  !
 ! A23   A(9,11,12)            121.2904         calculate D2E/DX2 analytically  !
 ! A24   A(10,11,12)           119.4158         calculate D2E/DX2 analytically  !
 ! A25   A(4,13,10)            119.0568         calculate D2E/DX2 analytically  !
 ! A26   A(4,13,19)            126.2026         calculate D2E/DX2 analytically  !
 ! A27   A(10,13,19)           114.6582         calculate D2E/DX2 analytically  !
 ! A28   A(4,14,5)             120.5028         calculate D2E/DX2 analytically  !
 ! A29   A(4,14,43)            122.4169         calculate D2E/DX2 analytically  !
 ! A30   A(5,14,43)            117.0546         calculate D2E/DX2 analytically  !
 ! A31   A(5,15,17)            122.2661         calculate D2E/DX2 analytically  !
 ! A32   A(5,15,41)            119.4001         calculate D2E/DX2 analytically  !
 ! A33   A(17,15,41)           118.1402         calculate D2E/DX2 analytically  !
 ! A34   A(10,16,18)           121.1319         calculate D2E/DX2 analytically  !
 ! A35   A(10,16,42)           121.6805         calculate D2E/DX2 analytically  !
 ! A36   A(18,16,42)           117.1592         calculate D2E/DX2 analytically  !
 ! A37   A(15,17,37)           107.2293         calculate D2E/DX2 analytically  !
 ! A38   A(16,18,19)           110.3505         calculate D2E/DX2 analytically  !
 ! A39   A(16,18,39)           107.4282         calculate D2E/DX2 analytically  !
 ! A40   A(19,18,39)           142.2049         calculate D2E/DX2 analytically  !
 ! A41   A(13,19,18)            80.5034         calculate D2E/DX2 analytically  !
 ! A42   A(13,19,20)           102.9081         calculate D2E/DX2 analytically  !
 ! A43   A(13,19,22)           156.4726         calculate D2E/DX2 analytically  !
 ! A44   A(13,19,43)            85.3805         calculate D2E/DX2 analytically  !
 ! A45   A(18,19,20)           144.0129         calculate D2E/DX2 analytically  !
 ! A46   A(18,19,22)            97.6819         calculate D2E/DX2 analytically  !
 ! A47   A(18,19,43)           162.2644         calculate D2E/DX2 analytically  !
 ! A48   A(20,19,22)            65.0176         calculate D2E/DX2 analytically  !
 ! A49   A(22,19,43)            99.5335         calculate D2E/DX2 analytically  !
 ! A50   A(19,20,21)           126.8834         calculate D2E/DX2 analytically  !
 ! A51   A(19,20,24)            93.0455         calculate D2E/DX2 analytically  !
 ! A52   A(21,20,24)           129.3789         calculate D2E/DX2 analytically  !
 ! A53   A(24,20,43)           152.1022         calculate D2E/DX2 analytically  !
 ! A54   A(20,21,30)           115.514          calculate D2E/DX2 analytically  !
 ! A55   A(20,21,71)           129.1286         calculate D2E/DX2 analytically  !
 ! A56   A(30,21,43)           102.083          calculate D2E/DX2 analytically  !
 ! A57   A(30,21,71)           112.7799         calculate D2E/DX2 analytically  !
 ! A58   A(43,21,71)           119.4489         calculate D2E/DX2 analytically  !
 ! A59   A(19,22,23)           109.7201         calculate D2E/DX2 analytically  !
 ! A60   A(19,22,24)            86.6612         calculate D2E/DX2 analytically  !
 ! A61   A(19,22,26)            81.8475         calculate D2E/DX2 analytically  !
 ! A62   A(23,22,24)           123.7288         calculate D2E/DX2 analytically  !
 ! A63   A(23,22,26)           124.908          calculate D2E/DX2 analytically  !
 ! A64   A(24,22,26)           110.2415         calculate D2E/DX2 analytically  !
 ! A65   A(20,24,22)            99.6886         calculate D2E/DX2 analytically  !
 ! A66   A(20,24,25)           109.7335         calculate D2E/DX2 analytically  !
 ! A67   A(20,24,87)           112.3222         calculate D2E/DX2 analytically  !
 ! A68   A(22,24,25)           110.2194         calculate D2E/DX2 analytically  !
 ! A69   A(22,24,87)           119.4455         calculate D2E/DX2 analytically  !
 ! A70   A(25,24,87)           105.2988         calculate D2E/DX2 analytically  !
 ! A71   A(22,26,27)           121.5577         calculate D2E/DX2 analytically  !
 ! A72   A(22,26,28)           116.1671         calculate D2E/DX2 analytically  !
 ! A73   A(27,26,28)           122.2465         calculate D2E/DX2 analytically  !
 ! A74   A(26,28,29)           115.6216         calculate D2E/DX2 analytically  !
 ! A75   A(26,28,86)           114.4782         calculate D2E/DX2 analytically  !
 ! A76   A(29,28,86)           111.0535         calculate D2E/DX2 analytically  !
 ! A77   A(32,31,33)           108.8399         calculate D2E/DX2 analytically  !
 ! A78   A(32,31,39)           112.7536         calculate D2E/DX2 analytically  !
 ! A79   A(32,31,42)           107.8989         calculate D2E/DX2 analytically  !
 ! A80   A(33,31,39)           114.4855         calculate D2E/DX2 analytically  !
 ! A81   A(33,31,42)           107.7272         calculate D2E/DX2 analytically  !
 ! A82   A(39,31,42)           104.7577         calculate D2E/DX2 analytically  !
 ! A83   A(35,34,36)           108.763          calculate D2E/DX2 analytically  !
 ! A84   A(35,34,37)           113.1805         calculate D2E/DX2 analytically  !
 ! A85   A(35,34,41)           107.7673         calculate D2E/DX2 analytically  !
 ! A86   A(36,34,37)           113.968          calculate D2E/DX2 analytically  !
 ! A87   A(36,34,41)           107.7718         calculate D2E/DX2 analytically  !
 ! A88   A(37,34,41)           105.0247         calculate D2E/DX2 analytically  !
 ! A89   A(17,37,34)           103.2471         calculate D2E/DX2 analytically  !
 ! A90   A(17,37,38)           107.0881         calculate D2E/DX2 analytically  !
 ! A91   A(17,37,45)           115.5921         calculate D2E/DX2 analytically  !
 ! A92   A(34,37,38)           109.8019         calculate D2E/DX2 analytically  !
 ! A93   A(34,37,45)           114.4602         calculate D2E/DX2 analytically  !
 ! A94   A(38,37,45)           106.4134         calculate D2E/DX2 analytically  !
 ! A95   A(18,39,31)           102.1216         calculate D2E/DX2 analytically  !
 ! A96   A(18,39,40)           109.2101         calculate D2E/DX2 analytically  !
 ! A97   A(18,39,58)           113.4273         calculate D2E/DX2 analytically  !
 ! A98   A(31,39,40)           110.0959         calculate D2E/DX2 analytically  !
 ! A99   A(31,39,58)           115.0629         calculate D2E/DX2 analytically  !
 ! A100  A(40,39,58)           106.8365         calculate D2E/DX2 analytically  !
 ! A101  A(15,41,34)           106.1928         calculate D2E/DX2 analytically  !
 ! A102  A(16,42,31)           105.6511         calculate D2E/DX2 analytically  !
 ! A103  A(14,43,19)            88.6168         calculate D2E/DX2 analytically  !
 ! A104  A(14,43,20)           109.3507         calculate D2E/DX2 analytically  !
 ! A105  A(14,43,21)            87.7641         calculate D2E/DX2 analytically  !
 ! A106  A(14,43,44)            89.772          calculate D2E/DX2 analytically  !
 ! A107  A(19,43,21)            84.7403         calculate D2E/DX2 analytically  !
 ! A108  A(19,43,44)            67.537          calculate D2E/DX2 analytically  !
 ! A109  A(20,43,44)           115.9393         calculate D2E/DX2 analytically  !
 ! A110  A(21,43,44)           152.2219         calculate D2E/DX2 analytically  !
 ! A111  A(37,45,46)           111.2363         calculate D2E/DX2 analytically  !
 ! A112  A(37,45,50)           108.0718         calculate D2E/DX2 analytically  !
 ! A113  A(37,45,54)           108.9196         calculate D2E/DX2 analytically  !
 ! A114  A(46,45,50)           110.186          calculate D2E/DX2 analytically  !
 ! A115  A(46,45,54)           109.5911         calculate D2E/DX2 analytically  !
 ! A116  A(50,45,54)           108.782          calculate D2E/DX2 analytically  !
 ! A117  A(45,46,47)           111.2421         calculate D2E/DX2 analytically  !
 ! A118  A(45,46,48)           112.2425         calculate D2E/DX2 analytically  !
 ! A119  A(45,46,49)           110.2504         calculate D2E/DX2 analytically  !
 ! A120  A(47,46,48)           108.2933         calculate D2E/DX2 analytically  !
 ! A121  A(47,46,49)           107.6796         calculate D2E/DX2 analytically  !
 ! A122  A(48,46,49)           106.93           calculate D2E/DX2 analytically  !
 ! A123  A(45,50,51)           111.3166         calculate D2E/DX2 analytically  !
 ! A124  A(45,50,52)           110.1465         calculate D2E/DX2 analytically  !
 ! A125  A(45,50,53)           112.541          calculate D2E/DX2 analytically  !
 ! A126  A(51,50,52)           107.6588         calculate D2E/DX2 analytically  !
 ! A127  A(51,50,53)           107.8675         calculate D2E/DX2 analytically  !
 ! A128  A(52,50,53)           107.0942         calculate D2E/DX2 analytically  !
 ! A129  A(45,54,55)           110.7375         calculate D2E/DX2 analytically  !
 ! A130  A(45,54,56)           110.5114         calculate D2E/DX2 analytically  !
 ! A131  A(45,54,57)           111.3087         calculate D2E/DX2 analytically  !
 ! A132  A(55,54,56)           107.9359         calculate D2E/DX2 analytically  !
 ! A133  A(55,54,57)           108.405          calculate D2E/DX2 analytically  !
 ! A134  A(56,54,57)           107.8211         calculate D2E/DX2 analytically  !
 ! A135  A(39,58,59)           111.0459         calculate D2E/DX2 analytically  !
 ! A136  A(39,58,63)           108.9058         calculate D2E/DX2 analytically  !
 ! A137  A(39,58,67)           108.3659         calculate D2E/DX2 analytically  !
 ! A138  A(59,58,63)           109.281          calculate D2E/DX2 analytically  !
 ! A139  A(59,58,67)           110.2408         calculate D2E/DX2 analytically  !
 ! A140  A(63,58,67)           108.9607         calculate D2E/DX2 analytically  !
 ! A141  A(58,59,60)           111.0637         calculate D2E/DX2 analytically  !
 ! A142  A(58,59,61)           112.3554         calculate D2E/DX2 analytically  !
 ! A143  A(58,59,62)           110.1574         calculate D2E/DX2 analytically  !
 ! A144  A(60,59,61)           108.4237         calculate D2E/DX2 analytically  !
 ! A145  A(60,59,62)           107.4739         calculate D2E/DX2 analytically  !
 ! A146  A(61,59,62)           107.168          calculate D2E/DX2 analytically  !
 ! A147  A(58,63,64)           111.2241         calculate D2E/DX2 analytically  !
 ! A148  A(58,63,65)           111.2031         calculate D2E/DX2 analytically  !
 ! A149  A(58,63,66)           110.2819         calculate D2E/DX2 analytically  !
 ! A150  A(64,63,65)           108.4845         calculate D2E/DX2 analytically  !
 ! A151  A(64,63,66)           107.5816         calculate D2E/DX2 analytically  !
 ! A152  A(65,63,66)           107.9311         calculate D2E/DX2 analytically  !
 ! A153  A(58,67,68)           111.3721         calculate D2E/DX2 analytically  !
 ! A154  A(58,67,69)           110.0938         calculate D2E/DX2 analytically  !
 ! A155  A(58,67,70)           112.6328         calculate D2E/DX2 analytically  !
 ! A156  A(68,67,69)           107.5714         calculate D2E/DX2 analytically  !
 ! A157  A(68,67,70)           107.8573         calculate D2E/DX2 analytically  !
 ! A158  A(69,67,70)           107.0878         calculate D2E/DX2 analytically  !
 ! A159  A(21,71,72)           124.5246         calculate D2E/DX2 analytically  !
 ! A160  A(21,71,73)           118.6847         calculate D2E/DX2 analytically  !
 ! A161  A(72,71,73)           116.6999         calculate D2E/DX2 analytically  !
 ! A162  A(71,72,74)           122.002          calculate D2E/DX2 analytically  !
 ! A163  A(71,72,75)           119.6827         calculate D2E/DX2 analytically  !
 ! A164  A(74,72,75)           118.3045         calculate D2E/DX2 analytically  !
 ! A165  A(71,73,76)           121.9443         calculate D2E/DX2 analytically  !
 ! A166  A(71,73,77)           118.8273         calculate D2E/DX2 analytically  !
 ! A167  A(76,73,77)           119.2258         calculate D2E/DX2 analytically  !
 ! A168  A(72,74,78)           120.0146         calculate D2E/DX2 analytically  !
 ! A169  A(72,74,79)           119.0427         calculate D2E/DX2 analytically  !
 ! A170  A(78,74,79)           120.9403         calculate D2E/DX2 analytically  !
 ! A171  A(73,76,78)           120.3011         calculate D2E/DX2 analytically  !
 ! A172  A(73,76,80)           121.2349         calculate D2E/DX2 analytically  !
 ! A173  A(78,76,80)           118.4639         calculate D2E/DX2 analytically  !
 ! A174  A(74,78,76)           119.0376         calculate D2E/DX2 analytically  !
 ! A175  A(74,78,85)           124.7944         calculate D2E/DX2 analytically  !
 ! A176  A(76,78,85)           116.1674         calculate D2E/DX2 analytically  !
 ! A177  A(82,81,83)           108.8931         calculate D2E/DX2 analytically  !
 ! A178  A(82,81,84)           109.0065         calculate D2E/DX2 analytically  !
 ! A179  A(82,81,85)           111.7727         calculate D2E/DX2 analytically  !
 ! A180  A(83,81,84)           109.0086         calculate D2E/DX2 analytically  !
 ! A181  A(83,81,85)           111.741          calculate D2E/DX2 analytically  !
 ! A182  A(84,81,85)           106.3314         calculate D2E/DX2 analytically  !
 ! A183  A(78,85,81)           118.6529         calculate D2E/DX2 analytically  !
 ! A184  A(24,87,88)           118.6667         calculate D2E/DX2 analytically  !
 ! A185  A(24,87,89)           123.026          calculate D2E/DX2 analytically  !
 ! A186  A(88,87,89)           118.3034         calculate D2E/DX2 analytically  !
 ! A187  A(87,88,90)           121.0391         calculate D2E/DX2 analytically  !
 ! A188  A(87,88,91)           119.2663         calculate D2E/DX2 analytically  !
 ! A189  A(90,88,91)           119.6946         calculate D2E/DX2 analytically  !
 ! A190  A(87,89,92)           120.8395         calculate D2E/DX2 analytically  !
 ! A191  A(87,89,93)           118.953          calculate D2E/DX2 analytically  !
 ! A192  A(92,89,93)           120.201          calculate D2E/DX2 analytically  !
 ! A193  A(88,90,94)           120.0998         calculate D2E/DX2 analytically  !
 ! A194  A(88,90,95)           119.7536         calculate D2E/DX2 analytically  !
 ! A195  A(94,90,95)           120.1461         calculate D2E/DX2 analytically  !
 ! A196  A(89,92,94)           120.313          calculate D2E/DX2 analytically  !
 ! A197  A(89,92,96)           119.6737         calculate D2E/DX2 analytically  !
 ! A198  A(94,92,96)           120.0133         calculate D2E/DX2 analytically  !
 ! A199  A(90,94,92)           119.4034         calculate D2E/DX2 analytically  !
 ! A200  A(90,94,97)           120.2784         calculate D2E/DX2 analytically  !
 ! A201  A(92,94,97)           120.3181         calculate D2E/DX2 analytically  !
 ! D1    D(5,1,2,3)              2.3641         calculate D2E/DX2 analytically  !
 ! D2    D(5,1,2,8)           -179.7838         calculate D2E/DX2 analytically  !
 ! D3    D(7,1,2,3)           -176.8897         calculate D2E/DX2 analytically  !
 ! D4    D(7,1,2,8)              0.9625         calculate D2E/DX2 analytically  !
 ! D5    D(2,1,5,14)             0.992          calculate D2E/DX2 analytically  !
 ! D6    D(2,1,5,15)          -174.5507         calculate D2E/DX2 analytically  !
 ! D7    D(7,1,5,14)          -179.743          calculate D2E/DX2 analytically  !
 ! D8    D(7,1,5,15)             4.7142         calculate D2E/DX2 analytically  !
 ! D9    D(1,2,3,4)             -2.5272         calculate D2E/DX2 analytically  !
 ! D10   D(1,2,3,9)            175.8361         calculate D2E/DX2 analytically  !
 ! D11   D(8,2,3,4)            179.5946         calculate D2E/DX2 analytically  !
 ! D12   D(8,2,3,9)             -2.0422         calculate D2E/DX2 analytically  !
 ! D13   D(2,3,4,13)           176.9323         calculate D2E/DX2 analytically  !
 ! D14   D(2,3,4,14)            -0.6095         calculate D2E/DX2 analytically  !
 ! D15   D(9,3,4,13)            -1.5647         calculate D2E/DX2 analytically  !
 ! D16   D(9,3,4,14)          -179.1065         calculate D2E/DX2 analytically  !
 ! D17   D(2,3,9,6)              3.3187         calculate D2E/DX2 analytically  !
 ! D18   D(2,3,9,11)          -174.2674         calculate D2E/DX2 analytically  !
 ! D19   D(4,3,9,6)           -178.3188         calculate D2E/DX2 analytically  !
 ! D20   D(4,3,9,11)             4.095          calculate D2E/DX2 analytically  !
 ! D21   D(3,4,13,10)           -3.5637         calculate D2E/DX2 analytically  !
 ! D22   D(3,4,13,19)          179.9226         calculate D2E/DX2 analytically  !
 ! D23   D(14,4,13,10)         174.0795         calculate D2E/DX2 analytically  !
 ! D24   D(14,4,13,19)          -2.4342         calculate D2E/DX2 analytically  !
 ! D25   D(3,4,14,5)             3.9449         calculate D2E/DX2 analytically  !
 ! D26   D(3,4,14,43)         -174.1556         calculate D2E/DX2 analytically  !
 ! D27   D(13,4,14,5)         -173.7213         calculate D2E/DX2 analytically  !
 ! D28   D(13,4,14,43)           8.1783         calculate D2E/DX2 analytically  !
 ! D29   D(1,5,14,4)            -4.1924         calculate D2E/DX2 analytically  !
 ! D30   D(1,5,14,43)          174.0071         calculate D2E/DX2 analytically  !
 ! D31   D(15,5,14,4)          171.9305         calculate D2E/DX2 analytically  !
 ! D32   D(15,5,14,43)          -9.87           calculate D2E/DX2 analytically  !
 ! D33   D(1,5,15,17)         -174.7343         calculate D2E/DX2 analytically  !
 ! D34   D(1,5,15,41)           10.4193         calculate D2E/DX2 analytically  !
 ! D35   D(14,5,15,17)           9.3342         calculate D2E/DX2 analytically  !
 ! D36   D(14,5,15,41)        -165.5122         calculate D2E/DX2 analytically  !
 ! D37   D(3,9,11,10)           -1.5895         calculate D2E/DX2 analytically  !
 ! D38   D(3,9,11,12)          176.4125         calculate D2E/DX2 analytically  !
 ! D39   D(6,9,11,10)         -179.1465         calculate D2E/DX2 analytically  !
 ! D40   D(6,9,11,12)           -1.1445         calculate D2E/DX2 analytically  !
 ! D41   D(13,10,11,9)          -3.7686         calculate D2E/DX2 analytically  !
 ! D42   D(13,10,11,12)        178.1914         calculate D2E/DX2 analytically  !
 ! D43   D(16,10,11,9)         170.4185         calculate D2E/DX2 analytically  !
 ! D44   D(16,10,11,12)         -7.6214         calculate D2E/DX2 analytically  !
 ! D45   D(11,10,13,4)           6.3342         calculate D2E/DX2 analytically  !
 ! D46   D(11,10,13,19)       -176.7608         calculate D2E/DX2 analytically  !
 ! D47   D(16,10,13,4)        -168.5698         calculate D2E/DX2 analytically  !
 ! D48   D(16,10,13,19)          8.3352         calculate D2E/DX2 analytically  !
 ! D49   D(11,10,16,18)       -174.0694         calculate D2E/DX2 analytically  !
 ! D50   D(11,10,16,42)          3.939          calculate D2E/DX2 analytically  !
 ! D51   D(13,10,16,18)          0.6297         calculate D2E/DX2 analytically  !
 ! D52   D(13,10,16,42)        178.6382         calculate D2E/DX2 analytically  !
 ! D53   D(4,13,19,18)         166.5141         calculate D2E/DX2 analytically  !
 ! D54   D(4,13,19,20)         -50.0372         calculate D2E/DX2 analytically  !
 ! D55   D(4,13,19,22)        -106.0479         calculate D2E/DX2 analytically  !
 ! D56   D(4,13,19,43)          -2.7114         calculate D2E/DX2 analytically  !
 ! D57   D(10,13,19,18)        -10.1328         calculate D2E/DX2 analytically  !
 ! D58   D(10,13,19,20)        133.3159         calculate D2E/DX2 analytically  !
 ! D59   D(10,13,19,22)         77.3051         calculate D2E/DX2 analytically  !
 ! D60   D(10,13,19,43)       -179.3583         calculate D2E/DX2 analytically  !
 ! D61   D(4,14,43,19)          -8.2431         calculate D2E/DX2 analytically  !
 ! D62   D(4,14,43,20)          41.7511         calculate D2E/DX2 analytically  !
 ! D63   D(4,14,43,21)          76.5459         calculate D2E/DX2 analytically  !
 ! D64   D(4,14,43,44)         -75.779          calculate D2E/DX2 analytically  !
 ! D65   D(5,14,43,19)         173.5946         calculate D2E/DX2 analytically  !
 ! D66   D(5,14,43,20)        -136.4112         calculate D2E/DX2 analytically  !
 ! D67   D(5,14,43,21)        -101.6164         calculate D2E/DX2 analytically  !
 ! D68   D(5,14,43,44)         106.0587         calculate D2E/DX2 analytically  !
 ! D69   D(5,15,17,37)        -171.9797         calculate D2E/DX2 analytically  !
 ! D70   D(41,15,17,37)          2.9287         calculate D2E/DX2 analytically  !
 ! D71   D(5,15,41,34)         170.6532         calculate D2E/DX2 analytically  !
 ! D72   D(17,15,41,34)         -4.4054         calculate D2E/DX2 analytically  !
 ! D73   D(10,16,18,19)         -8.7883         calculate D2E/DX2 analytically  !
 ! D74   D(10,16,18,39)        172.3466         calculate D2E/DX2 analytically  !
 ! D75   D(42,16,18,19)        173.1165         calculate D2E/DX2 analytically  !
 ! D76   D(42,16,18,39)         -5.7486         calculate D2E/DX2 analytically  !
 ! D77   D(10,16,42,31)        176.1027         calculate D2E/DX2 analytically  !
 ! D78   D(18,16,42,31)         -5.8132         calculate D2E/DX2 analytically  !
 ! D79   D(15,17,37,34)         -0.2068         calculate D2E/DX2 analytically  !
 ! D80   D(15,17,37,38)        115.6723         calculate D2E/DX2 analytically  !
 ! D81   D(15,17,37,45)       -125.9678         calculate D2E/DX2 analytically  !
 ! D82   D(16,18,19,13)          9.9056         calculate D2E/DX2 analytically  !
 ! D83   D(16,18,19,20)        -89.0169         calculate D2E/DX2 analytically  !
 ! D84   D(16,18,19,22)       -146.3661         calculate D2E/DX2 analytically  !
 ! D85   D(16,18,19,43)         47.6175         calculate D2E/DX2 analytically  !
 ! D86   D(39,18,19,13)       -171.8615         calculate D2E/DX2 analytically  !
 ! D87   D(39,18,19,20)         89.216          calculate D2E/DX2 analytically  !
 ! D88   D(39,18,19,22)         31.8669         calculate D2E/DX2 analytically  !
 ! D89   D(39,18,19,43)       -134.1495         calculate D2E/DX2 analytically  !
 ! D90   D(16,18,39,31)         13.7169         calculate D2E/DX2 analytically  !
 ! D91   D(16,18,39,40)        130.2674         calculate D2E/DX2 analytically  !
 ! D92   D(16,18,39,58)       -110.7036         calculate D2E/DX2 analytically  !
 ! D93   D(19,18,39,31)       -164.5466         calculate D2E/DX2 analytically  !
 ! D94   D(19,18,39,40)        -47.9962         calculate D2E/DX2 analytically  !
 ! D95   D(19,18,39,58)         71.0329         calculate D2E/DX2 analytically  !
 ! D96   D(13,19,20,21)         12.9407         calculate D2E/DX2 analytically  !
 ! D97   D(13,19,20,24)       -133.5963         calculate D2E/DX2 analytically  !
 ! D98   D(18,19,20,21)        104.518          calculate D2E/DX2 analytically  !
 ! D99   D(18,19,20,24)        -42.019          calculate D2E/DX2 analytically  !
 ! D100  D(22,19,20,21)        171.524          calculate D2E/DX2 analytically  !
 ! D101  D(22,19,20,24)         24.987          calculate D2E/DX2 analytically  !
 ! D102  D(13,19,22,23)        -87.2315         calculate D2E/DX2 analytically  !
 ! D103  D(13,19,22,24)         37.5151         calculate D2E/DX2 analytically  !
 ! D104  D(13,19,22,26)        148.5209         calculate D2E/DX2 analytically  !
 ! D105  D(18,19,22,23)         -3.3882         calculate D2E/DX2 analytically  !
 ! D106  D(18,19,22,24)        121.3584         calculate D2E/DX2 analytically  !
 ! D107  D(18,19,22,26)       -127.6358         calculate D2E/DX2 analytically  !
 ! D108  D(20,19,22,23)       -150.3079         calculate D2E/DX2 analytically  !
 ! D109  D(20,19,22,24)        -25.5613         calculate D2E/DX2 analytically  !
 ! D110  D(20,19,22,26)         85.4445         calculate D2E/DX2 analytically  !
 ! D111  D(43,19,22,23)        172.3312         calculate D2E/DX2 analytically  !
 ! D112  D(43,19,22,24)        -62.9222         calculate D2E/DX2 analytically  !
 ! D113  D(43,19,22,26)         48.0836         calculate D2E/DX2 analytically  !
 ! D114  D(13,19,43,14)          4.5218         calculate D2E/DX2 analytically  !
 ! D115  D(13,19,43,21)        -83.3596         calculate D2E/DX2 analytically  !
 ! D116  D(13,19,43,44)         94.8471         calculate D2E/DX2 analytically  !
 ! D117  D(18,19,43,14)        -32.7268         calculate D2E/DX2 analytically  !
 ! D118  D(18,19,43,21)       -120.6082         calculate D2E/DX2 analytically  !
 ! D119  D(18,19,43,44)         57.5984         calculate D2E/DX2 analytically  !
 ! D120  D(22,19,43,14)        161.3268         calculate D2E/DX2 analytically  !
 ! D121  D(22,19,43,21)         73.4454         calculate D2E/DX2 analytically  !
 ! D122  D(22,19,43,44)       -108.348          calculate D2E/DX2 analytically  !
 ! D123  D(19,20,21,30)        -31.3455         calculate D2E/DX2 analytically  !
 ! D124  D(19,20,21,71)        168.3779         calculate D2E/DX2 analytically  !
 ! D125  D(24,20,21,30)        103.2284         calculate D2E/DX2 analytically  !
 ! D126  D(24,20,21,71)        -57.0482         calculate D2E/DX2 analytically  !
 ! D127  D(19,20,24,22)        -35.5696         calculate D2E/DX2 analytically  !
 ! D128  D(19,20,24,25)       -151.2744         calculate D2E/DX2 analytically  !
 ! D129  D(19,20,24,87)         91.9626         calculate D2E/DX2 analytically  !
 ! D130  D(21,20,24,22)        179.2212         calculate D2E/DX2 analytically  !
 ! D131  D(21,20,24,25)         63.5164         calculate D2E/DX2 analytically  !
 ! D132  D(21,20,24,87)        -53.2466         calculate D2E/DX2 analytically  !
 ! D133  D(43,20,24,22)         31.1038         calculate D2E/DX2 analytically  !
 ! D134  D(43,20,24,25)        -84.601          calculate D2E/DX2 analytically  !
 ! D135  D(43,20,24,87)        158.636          calculate D2E/DX2 analytically  !
 ! D136  D(24,20,43,14)       -143.3961         calculate D2E/DX2 analytically  !
 ! D137  D(24,20,43,44)        -43.8329         calculate D2E/DX2 analytically  !
 ! D138  D(30,21,43,14)        -11.172          calculate D2E/DX2 analytically  !
 ! D139  D(30,21,43,19)         77.6438         calculate D2E/DX2 analytically  !
 ! D140  D(30,21,43,44)         74.0861         calculate D2E/DX2 analytically  !
 ! D141  D(71,21,43,14)        113.9683         calculate D2E/DX2 analytically  !
 ! D142  D(71,21,43,19)       -157.2159         calculate D2E/DX2 analytically  !
 ! D143  D(71,21,43,44)       -160.7736         calculate D2E/DX2 analytically  !
 ! D144  D(20,21,71,72)         -1.7036         calculate D2E/DX2 analytically  !
 ! D145  D(20,21,71,73)        174.7099         calculate D2E/DX2 analytically  !
 ! D146  D(30,21,71,72)       -162.4145         calculate D2E/DX2 analytically  !
 ! D147  D(30,21,71,73)         13.999          calculate D2E/DX2 analytically  !
 ! D148  D(43,21,71,72)         77.7292         calculate D2E/DX2 analytically  !
 ! D149  D(43,21,71,73)       -105.8573         calculate D2E/DX2 analytically  !
 ! D150  D(19,22,24,20)         32.1599         calculate D2E/DX2 analytically  !
 ! D151  D(19,22,24,25)        147.4947         calculate D2E/DX2 analytically  !
 ! D152  D(19,22,24,87)        -90.4452         calculate D2E/DX2 analytically  !
 ! D153  D(23,22,24,20)        143.7188         calculate D2E/DX2 analytically  !
 ! D154  D(23,22,24,25)       -100.9464         calculate D2E/DX2 analytically  !
 ! D155  D(23,22,24,87)         21.1137         calculate D2E/DX2 analytically  !
 ! D156  D(26,22,24,20)        -47.8829         calculate D2E/DX2 analytically  !
 ! D157  D(26,22,24,25)         67.4518         calculate D2E/DX2 analytically  !
 ! D158  D(26,22,24,87)       -170.488          calculate D2E/DX2 analytically  !
 ! D159  D(19,22,26,27)         96.1696         calculate D2E/DX2 analytically  !
 ! D160  D(19,22,26,28)        -81.9227         calculate D2E/DX2 analytically  !
 ! D161  D(23,22,26,27)        -12.233          calculate D2E/DX2 analytically  !
 ! D162  D(23,22,26,28)        169.6747         calculate D2E/DX2 analytically  !
 ! D163  D(24,22,26,27)        179.5352         calculate D2E/DX2 analytically  !
 ! D164  D(24,22,26,28)          1.4429         calculate D2E/DX2 analytically  !
 ! D165  D(20,24,87,88)         90.559          calculate D2E/DX2 analytically  !
 ! D166  D(20,24,87,89)        -88.7092         calculate D2E/DX2 analytically  !
 ! D167  D(22,24,87,88)       -153.2928         calculate D2E/DX2 analytically  !
 ! D168  D(22,24,87,89)         27.4389         calculate D2E/DX2 analytically  !
 ! D169  D(25,24,87,88)        -28.8289         calculate D2E/DX2 analytically  !
 ! D170  D(25,24,87,89)        151.9029         calculate D2E/DX2 analytically  !
 ! D171  D(22,26,28,29)        -61.5273         calculate D2E/DX2 analytically  !
 ! D172  D(22,26,28,86)        167.4696         calculate D2E/DX2 analytically  !
 ! D173  D(27,26,28,29)        120.3948         calculate D2E/DX2 analytically  !
 ! D174  D(27,26,28,86)        -10.6084         calculate D2E/DX2 analytically  !
 ! D175  D(32,31,39,18)        100.3666         calculate D2E/DX2 analytically  !
 ! D176  D(32,31,39,40)        -15.5417         calculate D2E/DX2 analytically  !
 ! D177  D(32,31,39,58)       -136.3104         calculate D2E/DX2 analytically  !
 ! D178  D(33,31,39,18)       -134.4786         calculate D2E/DX2 analytically  !
 ! D179  D(33,31,39,40)        109.6131         calculate D2E/DX2 analytically  !
 ! D180  D(33,31,39,58)        -11.1555         calculate D2E/DX2 analytically  !
 ! D181  D(42,31,39,18)        -16.7064         calculate D2E/DX2 analytically  !
 ! D182  D(42,31,39,40)       -132.6148         calculate D2E/DX2 analytically  !
 ! D183  D(42,31,39,58)        106.6166         calculate D2E/DX2 analytically  !
 ! D184  D(32,31,42,16)       -106.3657         calculate D2E/DX2 analytically  !
 ! D185  D(33,31,42,16)        136.279          calculate D2E/DX2 analytically  !
 ! D186  D(39,31,42,16)         13.9911         calculate D2E/DX2 analytically  !
 ! D187  D(35,34,37,17)        115.1437         calculate D2E/DX2 analytically  !
 ! D188  D(35,34,37,38)          1.2143         calculate D2E/DX2 analytically  !
 ! D189  D(35,34,37,45)       -118.3713         calculate D2E/DX2 analytically  !
 ! D190  D(36,34,37,17)       -119.877          calculate D2E/DX2 analytically  !
 ! D191  D(36,34,37,38)        126.1936         calculate D2E/DX2 analytically  !
 ! D192  D(36,34,37,45)          6.608          calculate D2E/DX2 analytically  !
 ! D193  D(41,34,37,17)         -2.1553         calculate D2E/DX2 analytically  !
 ! D194  D(41,34,37,38)       -116.0847         calculate D2E/DX2 analytically  !
 ! D195  D(41,34,37,45)        124.3297         calculate D2E/DX2 analytically  !
 ! D196  D(35,34,41,15)       -117.2277         calculate D2E/DX2 analytically  !
 ! D197  D(36,34,41,15)        125.553          calculate D2E/DX2 analytically  !
 ! D198  D(37,34,41,15)          3.7018         calculate D2E/DX2 analytically  !
 ! D199  D(17,37,45,46)         60.582          calculate D2E/DX2 analytically  !
 ! D200  D(17,37,45,50)       -178.3388         calculate D2E/DX2 analytically  !
 ! D201  D(17,37,45,54)        -60.3135         calculate D2E/DX2 analytically  !
 ! D202  D(34,37,45,46)        -59.2196         calculate D2E/DX2 analytically  !
 ! D203  D(34,37,45,50)         61.8596         calculate D2E/DX2 analytically  !
 ! D204  D(34,37,45,54)        179.8848         calculate D2E/DX2 analytically  !
 ! D205  D(38,37,45,46)        179.3152         calculate D2E/DX2 analytically  !
 ! D206  D(38,37,45,50)        -59.6056         calculate D2E/DX2 analytically  !
 ! D207  D(38,37,45,54)         58.4197         calculate D2E/DX2 analytically  !
 ! D208  D(18,39,58,59)         59.1252         calculate D2E/DX2 analytically  !
 ! D209  D(18,39,58,63)        -61.2567         calculate D2E/DX2 analytically  !
 ! D210  D(18,39,58,67)       -179.6542         calculate D2E/DX2 analytically  !
 ! D211  D(31,39,58,59)        -57.9573         calculate D2E/DX2 analytically  !
 ! D212  D(31,39,58,63)       -178.3392         calculate D2E/DX2 analytically  !
 ! D213  D(31,39,58,67)         63.2633         calculate D2E/DX2 analytically  !
 ! D214  D(40,39,58,59)        179.508          calculate D2E/DX2 analytically  !
 ! D215  D(40,39,58,63)         59.1261         calculate D2E/DX2 analytically  !
 ! D216  D(40,39,58,67)        -59.2714         calculate D2E/DX2 analytically  !
 ! D217  D(37,45,46,47)        -56.2641         calculate D2E/DX2 analytically  !
 ! D218  D(37,45,46,48)         65.2565         calculate D2E/DX2 analytically  !
 ! D219  D(37,45,46,49)       -175.6512         calculate D2E/DX2 analytically  !
 ! D220  D(50,45,46,47)       -176.096          calculate D2E/DX2 analytically  !
 ! D221  D(50,45,46,48)        -54.5754         calculate D2E/DX2 analytically  !
 ! D222  D(50,45,46,49)         64.5169         calculate D2E/DX2 analytically  !
 ! D223  D(54,45,46,47)         64.2364         calculate D2E/DX2 analytically  !
 ! D224  D(54,45,46,48)       -174.243          calculate D2E/DX2 analytically  !
 ! D225  D(54,45,46,49)        -55.1507         calculate D2E/DX2 analytically  !
 ! D226  D(37,45,50,51)         60.1615         calculate D2E/DX2 analytically  !
 ! D227  D(37,45,50,52)        179.5025         calculate D2E/DX2 analytically  !
 ! D228  D(37,45,50,53)        -61.0737         calculate D2E/DX2 analytically  !
 ! D229  D(46,45,50,51)       -178.1089         calculate D2E/DX2 analytically  !
 ! D230  D(46,45,50,52)        -58.7679         calculate D2E/DX2 analytically  !
 ! D231  D(46,45,50,53)         60.6559         calculate D2E/DX2 analytically  !
 ! D232  D(54,45,50,51)        -57.9519         calculate D2E/DX2 analytically  !
 ! D233  D(54,45,50,52)         61.3891         calculate D2E/DX2 analytically  !
 ! D234  D(54,45,50,53)       -179.187          calculate D2E/DX2 analytically  !
 ! D235  D(37,45,54,55)         66.7853         calculate D2E/DX2 analytically  !
 ! D236  D(37,45,54,56)       -173.6623         calculate D2E/DX2 analytically  !
 ! D237  D(37,45,54,57)        -53.8826         calculate D2E/DX2 analytically  !
 ! D238  D(46,45,54,55)        -55.1135         calculate D2E/DX2 analytically  !
 ! D239  D(46,45,54,56)         64.439          calculate D2E/DX2 analytically  !
 ! D240  D(46,45,54,57)       -175.7814         calculate D2E/DX2 analytically  !
 ! D241  D(50,45,54,55)       -175.6382         calculate D2E/DX2 analytically  !
 ! D242  D(50,45,54,56)        -56.0858         calculate D2E/DX2 analytically  !
 ! D243  D(50,45,54,57)         63.6938         calculate D2E/DX2 analytically  !
 ! D244  D(39,58,59,60)        -60.9367         calculate D2E/DX2 analytically  !
 ! D245  D(39,58,59,61)         60.7036         calculate D2E/DX2 analytically  !
 ! D246  D(39,58,59,62)       -179.8931         calculate D2E/DX2 analytically  !
 ! D247  D(63,58,59,60)         59.2227         calculate D2E/DX2 analytically  !
 ! D248  D(63,58,59,61)       -179.137          calculate D2E/DX2 analytically  !
 ! D249  D(63,58,59,62)        -59.7337         calculate D2E/DX2 analytically  !
 ! D250  D(67,58,59,60)        178.9502         calculate D2E/DX2 analytically  !
 ! D251  D(67,58,59,61)        -59.4095         calculate D2E/DX2 analytically  !
 ! D252  D(67,58,59,62)         59.9937         calculate D2E/DX2 analytically  !
 ! D253  D(39,58,63,64)        -57.4475         calculate D2E/DX2 analytically  !
 ! D254  D(39,58,63,65)         63.5815         calculate D2E/DX2 analytically  !
 ! D255  D(39,58,63,66)       -176.7211         calculate D2E/DX2 analytically  !
 ! D256  D(59,58,63,64)       -178.9113         calculate D2E/DX2 analytically  !
 ! D257  D(59,58,63,65)        -57.8823         calculate D2E/DX2 analytically  !
 ! D258  D(59,58,63,66)         61.8151         calculate D2E/DX2 analytically  !
 ! D259  D(67,58,63,64)         60.5755         calculate D2E/DX2 analytically  !
 ! D260  D(67,58,63,65)       -178.3955         calculate D2E/DX2 analytically  !
 ! D261  D(67,58,63,66)        -58.6981         calculate D2E/DX2 analytically  !
 ! D262  D(39,58,67,68)         57.5791         calculate D2E/DX2 analytically  !
 ! D263  D(39,58,67,69)        176.8118         calculate D2E/DX2 analytically  !
 ! D264  D(39,58,67,70)        -63.7482         calculate D2E/DX2 analytically  !
 ! D265  D(59,58,67,68)        179.2953         calculate D2E/DX2 analytically  !
 ! D266  D(59,58,67,69)        -61.472          calculate D2E/DX2 analytically  !
 ! D267  D(59,58,67,70)         57.968          calculate D2E/DX2 analytically  !
 ! D268  D(63,58,67,68)        -60.7836         calculate D2E/DX2 analytically  !
 ! D269  D(63,58,67,69)         58.4492         calculate D2E/DX2 analytically  !
 ! D270  D(63,58,67,70)        177.8892         calculate D2E/DX2 analytically  !
 ! D271  D(21,71,72,74)        176.311          calculate D2E/DX2 analytically  !
 ! D272  D(21,71,72,75)         -2.4723         calculate D2E/DX2 analytically  !
 ! D273  D(73,71,72,74)         -0.1672         calculate D2E/DX2 analytically  !
 ! D274  D(73,71,72,75)       -178.9505         calculate D2E/DX2 analytically  !
 ! D275  D(21,71,73,76)       -176.4474         calculate D2E/DX2 analytically  !
 ! D276  D(21,71,73,77)          2.9628         calculate D2E/DX2 analytically  !
 ! D277  D(72,71,73,76)          0.2455         calculate D2E/DX2 analytically  !
 ! D278  D(72,71,73,77)        179.6556         calculate D2E/DX2 analytically  !
 ! D279  D(71,72,74,78)          0.088          calculate D2E/DX2 analytically  !
 ! D280  D(71,72,74,79)       -179.3618         calculate D2E/DX2 analytically  !
 ! D281  D(75,72,74,78)        178.8874         calculate D2E/DX2 analytically  !
 ! D282  D(75,72,74,79)         -0.5623         calculate D2E/DX2 analytically  !
 ! D283  D(71,73,76,78)         -0.2436         calculate D2E/DX2 analytically  !
 ! D284  D(71,73,76,80)        179.653          calculate D2E/DX2 analytically  !
 ! D285  D(77,73,76,78)       -179.6515         calculate D2E/DX2 analytically  !
 ! D286  D(77,73,76,80)          0.2452         calculate D2E/DX2 analytically  !
 ! D287  D(72,74,78,76)         -0.0749         calculate D2E/DX2 analytically  !
 ! D288  D(72,74,78,85)       -179.7733         calculate D2E/DX2 analytically  !
 ! D289  D(79,74,78,76)        179.3642         calculate D2E/DX2 analytically  !
 ! D290  D(79,74,78,85)         -0.3342         calculate D2E/DX2 analytically  !
 ! D291  D(73,76,78,74)          0.1516         calculate D2E/DX2 analytically  !
 ! D292  D(73,76,78,85)        179.8757         calculate D2E/DX2 analytically  !
 ! D293  D(80,76,78,74)       -179.7478         calculate D2E/DX2 analytically  !
 ! D294  D(80,76,78,85)         -0.0238         calculate D2E/DX2 analytically  !
 ! D295  D(74,78,85,81)          0.2076         calculate D2E/DX2 analytically  !
 ! D296  D(76,78,85,81)       -179.4986         calculate D2E/DX2 analytically  !
 ! D297  D(82,81,85,78)        -61.3183         calculate D2E/DX2 analytically  !
 ! D298  D(83,81,85,78)         61.0024         calculate D2E/DX2 analytically  !
 ! D299  D(84,81,85,78)        179.8345         calculate D2E/DX2 analytically  !
 ! D300  D(24,87,88,90)       -179.286          calculate D2E/DX2 analytically  !
 ! D301  D(24,87,88,91)          0.7915         calculate D2E/DX2 analytically  !
 ! D302  D(89,87,88,90)          0.0172         calculate D2E/DX2 analytically  !
 ! D303  D(89,87,88,91)       -179.9053         calculate D2E/DX2 analytically  !
 ! D304  D(24,87,89,92)        179.637          calculate D2E/DX2 analytically  !
 ! D305  D(24,87,89,93)          0.5654         calculate D2E/DX2 analytically  !
 ! D306  D(88,87,89,92)          0.3663         calculate D2E/DX2 analytically  !
 ! D307  D(88,87,89,93)       -178.7053         calculate D2E/DX2 analytically  !
 ! D308  D(87,88,90,94)         -0.3016         calculate D2E/DX2 analytically  !
 ! D309  D(87,88,90,95)        179.9519         calculate D2E/DX2 analytically  !
 ! D310  D(91,88,90,94)        179.6205         calculate D2E/DX2 analytically  !
 ! D311  D(91,88,90,95)         -0.1259         calculate D2E/DX2 analytically  !
 ! D312  D(87,89,92,94)         -0.4682         calculate D2E/DX2 analytically  !
 ! D313  D(87,89,92,96)        179.6023         calculate D2E/DX2 analytically  !
 ! D314  D(93,89,92,94)        178.5918         calculate D2E/DX2 analytically  !
 ! D315  D(93,89,92,96)         -1.3376         calculate D2E/DX2 analytically  !
 ! D316  D(88,90,94,92)          0.2025         calculate D2E/DX2 analytically  !
 ! D317  D(88,90,94,97)       -179.6898         calculate D2E/DX2 analytically  !
 ! D318  D(95,90,94,92)        179.9479         calculate D2E/DX2 analytically  !
 ! D319  D(95,90,94,97)          0.0557         calculate D2E/DX2 analytically  !
 ! D320  D(89,92,94,90)          0.1777         calculate D2E/DX2 analytically  !
 ! D321  D(89,92,94,97)       -179.9301         calculate D2E/DX2 analytically  !
 ! D322  D(96,92,94,90)       -179.893          calculate D2E/DX2 analytically  !
 ! D323  D(96,92,94,97)         -0.0009         calculate D2E/DX2 analytically  !
 --------------------------------------------------------------------------------
 Trust Radius=3.00D-01 FncErr=5.00D-06 GrdErr=5.00D-06 EigMax=2.50D+02 EigMin=1.00D-04
 Number of steps in this run=    582 maximum allowed number of steps=    582.
 Search for a saddle point of order  1.
 GradGradGradGradGradGradGradGradGradGradGradGradGradGradGradGradGradGrad

 Stoichiometry    C41H46ClN4Ni2O3(4)
 Framework group  C1[X(C41H46ClN4Ni2O3)]
 Deg. of freedom   285
 Full point group                 C1      NOp   1
 Largest Abelian subgroup         C1      NOp   1
 Largest concise Abelian subgroup C1      NOp   1
                         Standard orientation:                         
 ---------------------------------------------------------------------
 Center     Atomic      Atomic             Coordinates (Angstroms)
 Number     Number       Type             X           Y           Z
 ---------------------------------------------------------------------
      1          6           0        1.208594   -2.900245    3.226622
      2          6           0        0.063773   -2.607909    3.982200
      3          6           0       -1.008831   -1.870745    3.402026
      4          6           0       -0.833379   -1.401079    2.040904
      5          6           0        1.293239   -2.408395    1.909138
      6          1           0       -2.416318   -1.900368    5.081703
      7          1           0        2.025590   -3.510368    3.637872
      8          1           0       -0.031896   -2.974289    5.016147
      9          6           0       -2.255214   -1.584970    4.039377
     10          6           0       -3.040620   -0.578819    1.978560
     11          6           0       -3.274126   -0.954097    3.318692
     12          1           0       -4.262996   -0.774473    3.765525
     13          7           0       -1.816088   -0.743026    1.373366
     14          7           0        0.308896   -1.644663    1.358814
     15          6           0        2.349530   -2.704741    0.947245
     16          6           0       -4.046002   -0.101108    1.048475
     17          7           0        2.408424   -2.127723   -0.224799
     18          7           0       -3.754121    0.116199   -0.217632
     19         28           0       -1.707317   -0.032258   -0.521934
     20          6           0        0.069895    1.032303   -0.515684
     21          6           0        1.089897    0.992828    0.484562
     22          6           0       -1.527610    1.538502   -2.143315
     23          1           0       -2.526120    1.924598   -2.398635
     24          6           0       -0.561926    2.250896   -1.223118
     25          1           0        0.222321    2.790197   -1.824261
     26          6           0       -0.889972    0.508333   -2.797899
     27          1           0       -1.423514   -0.139443   -3.509852
     28          6           0        0.530455    0.300232   -2.455854
     29          1           0        1.206321    1.149281   -2.678948
     30          1           0        0.738653    0.802714    1.515864
     31          6           0       -6.000151    0.663723    0.264171
     32          1           0       -6.171263    1.743879    0.456390
     33          1           0       -6.979966    0.158699    0.165346
     34          6           0        4.009006   -3.884540    0.002965
     35          1           0        3.826812   -4.922750   -0.339246
     36          1           0        5.082775   -3.775428    0.254702
     37          6           0        3.478368   -2.806070   -0.994970
     38          1           0        2.990923   -3.303502   -1.863938
     39          6           0       -5.021209    0.410422   -0.919923
     40          1           0       -4.899651    1.339131   -1.520923
     41          8           0        3.243467   -3.678419    1.223386
     42          8           0       -5.326459    0.102035    1.430014
     43         28           0        0.666975   -0.860991   -0.479811
     44         17           0       -0.850956   -2.463809   -1.448005
     45          6           0        4.583495   -1.869930   -1.584516
     46          6           0        5.322961   -1.107440   -0.468087
     47          1           0        4.615377   -0.527778    0.159407
     48          1           0        5.900046   -1.787176    0.194260
     49          1           0        6.048398   -0.391427   -0.907347
     50          6           0        5.577735   -2.744764   -2.381820
     51          1           0        5.069591   -3.277539   -3.214015
     52          1           0        6.374644   -2.111309   -2.824368
     53          1           0        6.079961   -3.505008   -1.746806
     54          6           0        3.924994   -0.864989   -2.547257
     55          1           0        3.263873   -0.169671   -1.995881
     56          1           0        4.697873   -0.261370   -3.067999
     57          1           0        3.320387   -1.384258   -3.321450
     58          6           0       -5.460314   -0.721008   -1.915278
     59          6           0       -5.645866   -2.064510   -1.179927
     60          1           0       -4.698016   -2.394977   -0.708203
     61          1           0       -6.428942   -2.011415   -0.394411
     62          1           0       -5.954132   -2.853709   -1.897072
     63          6           0       -4.376394   -0.880028   -3.000649
     64          1           0       -4.202518    0.076585   -3.538761
     65          1           0       -3.415060   -1.216118   -2.561314
     66          1           0       -4.691492   -1.634832   -3.751632
     67          6           0       -6.784089   -0.291881   -2.586821
     68          1           0       -6.674824    0.681451   -3.112185
     69          1           0       -7.091655   -1.046679   -3.340277
     70          1           0       -7.619558   -0.195512   -1.861614
     71          6           0        2.450790    1.534405    0.439446
     72          6           0        3.017396    2.195021   -0.682810
     73          6           0        3.253679    1.468361    1.617340
     74          6           0        4.302129    2.761220   -0.642809
     75          1           0        2.434478    2.289517   -1.610756
     76          6           0        4.529940    2.027113    1.672487
     77          1           0        2.845915    0.968427    2.511207
     78          6           0        5.073507    2.681589    0.539170
     79          1           0        4.688879    3.270658   -1.536867
     80          1           0        5.137184    1.974263    2.589356
     81          6           0        6.918703    3.877610   -0.415234
     82          1           0        7.041343    3.207164   -1.295078
     83          1           0        6.323572    4.767152   -0.720203
     84          1           0        7.916757    4.211355   -0.074771
     85          8           0        6.325895    3.199192    0.687063
     86          1           0        0.955113   -0.652389   -2.822499
     87          6           0       -1.092283    3.284311   -0.234137
     88          6           0       -0.229794    4.319669    0.192433
     89          6           0       -2.401844    3.247204    0.288047
     90          6           0       -0.661763    5.289324    1.113522
     91          1           0        0.796988    4.364744   -0.206921
     92          6           0       -2.840876    4.220614    1.204250
     93          1           0       -3.075193    2.433676   -0.020122
     94          6           0       -1.972526    5.244592    1.622395
     95          1           0        0.028669    6.086822    1.432181
     96          1           0       -3.870414    4.176999    1.595147
     97          1           0       -2.315874    6.006229    2.340732
 ---------------------------------------------------------------------
 Rotational constants (GHZ):           0.0800335           0.0443405           0.0383991
 General basis read from cards:  (5D, 7F)
 ======================================================================================================
                                       Pseudopotential Parameters
 ======================================================================================================
  Center     Atomic      Valence      Angular      Power
  Number     Number     Electrons     Momentum     of R      Exponent        Coefficient   SO-Coeffient
 ======================================================================================================
    1          6
                                   No pseudopotential on this center.
    2          6
                                   No pseudopotential on this center.
    3          6
                                   No pseudopotential on this center.
    4          6
                                   No pseudopotential on this center.
    5          6
                                   No pseudopotential on this center.
    6          1
                                   No pseudopotential on this center.
    7          1
                                   No pseudopotential on this center.
    8          1
                                   No pseudopotential on this center.
    9          6
                                   No pseudopotential on this center.
   10          6
                                   No pseudopotential on this center.
   11          6
                                   No pseudopotential on this center.
   12          1
                                   No pseudopotential on this center.
   13          7
                                   No pseudopotential on this center.
   14          7
                                   No pseudopotential on this center.
   15          6
                                   No pseudopotential on this center.
   16          6
                                   No pseudopotential on this center.
   17          7
                                   No pseudopotential on this center.
   18          7
                                   No pseudopotential on this center.
   19         28           18
                                      D and up 
                                                     1      469.9324331      -10.00000000    0.00000000
                                                     2       85.4236411      -69.40848050    0.00000000
                                                     2       21.2674984      -12.09510200    0.00000000
                                      S - D
                                                     0      162.1686097        3.00000000    0.00000000
                                                     1      176.5333232       22.02536180    0.00000000
                                                     2       68.9562010      443.01810880    0.00000000
                                                     2       13.5792838      145.56964110    0.00000000
                                      P - D
                                                     0       69.0181506        5.00000000    0.00000000
                                                     1      275.5955596        4.98828240    0.00000000
                                                     2       47.1315453      256.69458530    0.00000000
                                                     2       12.9874075       78.47544500    0.00000000
   20          6
                                   No pseudopotential on this center.
   21          6
                                   No pseudopotential on this center.
   22          6
                                   No pseudopotential on this center.
   23          1
                                   No pseudopotential on this center.
   24          6
                                   No pseudopotential on this center.
   25          1
                                   No pseudopotential on this center.
   26          6
                                   No pseudopotential on this center.
   27          1
                                   No pseudopotential on this center.
   28          6
                                   No pseudopotential on this center.
   29          1
                                   No pseudopotential on this center.
   30          1
                                   No pseudopotential on this center.
   31          6
                                   No pseudopotential on this center.
   32          1
                                   No pseudopotential on this center.
   33          1
                                   No pseudopotential on this center.
   34          6
                                   No pseudopotential on this center.
   35          1
                                   No pseudopotential on this center.
   36          1
                                   No pseudopotential on this center.
   37          6
                                   No pseudopotential on this center.
   38          1
                                   No pseudopotential on this center.
   39          6
                                   No pseudopotential on this center.
   40          1
                                   No pseudopotential on this center.
   41          8
                                   No pseudopotential on this center.
   42          8
                                   No pseudopotential on this center.
   43         28           18
                                      D and up 
                                                     1      469.9324331      -10.00000000    0.00000000
                                                     2       85.4236411      -69.40848050    0.00000000
                                                     2       21.2674984      -12.09510200    0.00000000
                                      S - D
                                                     0      162.1686097        3.00000000    0.00000000
                                                     1      176.5333232       22.02536180    0.00000000
                                                     2       68.9562010      443.01810880    0.00000000
                                                     2       13.5792838      145.56964110    0.00000000
                                      P - D
                                                     0       69.0181506        5.00000000    0.00000000
                                                     1      275.5955596        4.98828240    0.00000000
                                                     2       47.1315453      256.69458530    0.00000000
                                                     2       12.9874075       78.47544500    0.00000000
   44         17
                                   No pseudopotential on this center.
   45          6
                                   No pseudopotential on this center.
   46          6
                                   No pseudopotential on this center.
   47          1
                                   No pseudopotential on this center.
   48          1
                                   No pseudopotential on this center.
   49          1
                                   No pseudopotential on this center.
   50          6
                                   No pseudopotential on this center.
   51          1
                                   No pseudopotential on this center.
   52          1
                                   No pseudopotential on this center.
   53          1
                                   No pseudopotential on this center.
   54          6
                                   No pseudopotential on this center.
   55          1
                                   No pseudopotential on this center.
   56          1
                                   No pseudopotential on this center.
   57          1
                                   No pseudopotential on this center.
   58          6
                                   No pseudopotential on this center.
   59          6
                                   No pseudopotential on this center.
   60          1
                                   No pseudopotential on this center.
   61          1
                                   No pseudopotential on this center.
   62          1
                                   No pseudopotential on this center.
   63          6
                                   No pseudopotential on this center.
   64          1
                                   No pseudopotential on this center.
   65          1
                                   No pseudopotential on this center.
   66          1
                                   No pseudopotential on this center.
   67          6
                                   No pseudopotential on this center.
   68          1
                                   No pseudopotential on this center.
   69          1
                                   No pseudopotential on this center.
   70          1
                                   No pseudopotential on this center.
   71          6
                                   No pseudopotential on this center.
   72          6
                                   No pseudopotential on this center.
   73          6
                                   No pseudopotential on this center.
   74          6
                                   No pseudopotential on this center.
   75          1
                                   No pseudopotential on this center.
   76          6
                                   No pseudopotential on this center.
   77          1
                                   No pseudopotential on this center.
   78          6
                                   No pseudopotential on this center.
   79          1
[...]
 00000091,-0.00000125,0.00000113,-0.00000017,-0.00000095,-0.00000609,-0
 .00000453,-0.00000029,0.00000176,0.00000257,-0.00000241,-0.00000654,-0
 .00001370,0.00001660,0.00000350,-0.00000589,0.00001537,0.00001465,0.00
 000663,-0.00000876,0.00017247,0.00006436,-0.00007756,0.00001172,0.0000
 3535,0.00001677,-0.00000522,-0.00000991,-0.00000467,0.00000020,0.00000
 424,0.00000283,-0.00000022,-0.00000120,-0.00000110,0.00000059,0.000001
 71,0.00000100,-0.00000113,-0.00000020,0.00000011,0.00000051,-0.0000006
 4,-0.00000016,0.00000037,-0.00000220,-0.00000119,-0.00000021,0.0000004
 7,-0.00000015,0.00000089,0.00000006,-0.00000064,-0.00000054,-0.0000003
 2,0.00000021,0.00000065,0.00000066,-0.00000078,0.00000227,0.,0.0000020
 1,-0.00000012,-0.00000105,-0.00000036,-0.00000001,0.00000129,-0.000000
 66,0.00001745,-0.00000941,0.00001162,-0.00000582,0.00000612,-0.0000081
 1,-0.00000085,-0.00000448,0.00000054,0.00000675,-0.00000478,0.00000272
 ,-0.00000130,0.00000486,-0.00000320,-0.00000784,0.00000754,-0.00000178
 ,-0.00000058,-0.00000328,-0.00000037,-0.00000043,0.00000328,0.00000129
 ,0.00000282,0.00000273,-0.00000530,0.00000049,0.00000887,-0.00000148,0
 .00000141,-0.00000235,-0.00000014,-0.00000232,0.00000131,-0.00000423,0
 .00000377,-0.00000040,0.00000187,-0.00000069,-0.00001281,-0.00000475,0
 .00000053,0.00000131,0.00001229,0.00000357,0.00000447,0.00000586,-0.00
 000041,-0.00000111,-0.00000631,0.00000842,-0.00000141,-0.00000581,-0.0
 0000342,0.00000372,-0.00000418,-0.00000112,-0.00000075,-0.00000336,-0.
 00000264,0.00000010,0.00000104,-0.00000045,-0.00000111,0.00000085,-0.0
 0000140,-0.00000071,0.00000011,-0.00000176,-0.00000108,0.00000120,0.00
 000023,0.00000079,-0.00000041,0.00000006,0.00000031,0.00000060,0.00000
 013,0.,0.00000018,-0.00000071,0.00000114,-0.00000305,0.00001010,-0.000
 00767,0.00002384,0.00048224,-0.00081319,0.00485894,-0.00003461,-0.0009
 7863,0.00012313,-0.01878114,0.00490308,0.00944201,0.00343473,-0.001627
 34,0.00373957,-0.00024351,-0.00017004,-0.00044757,0.02589121,-0.050626
 09,-0.00375626,-0.00082958,-0.00015872,-0.00218587,0.02085807,0.001868
 00,-0.01060917,0.00108635,-0.00000462,-0.00044518,-0.02954663,0.047587
 63,0.00000638,0.00000196,-0.00000074,-0.00001176,-0.00000325,-0.000003
 51,0.00001626,0.00000216,-0.00000446,-0.00000661,-0.00000655,0.0000061
 3,-0.00000957,-0.00000883,0.00000437,-0.00000039,-0.00000282,0.0000002
 7,0.00000086,-0.00000060,0.00000113,-0.00000022,-0.00000020,0.00000081
 ,-0.00002813,-0.00000646,-0.00000526,-0.00003573,-0.00001367,-0.000034
 90,0.00000971,0.00001619,0.00002976,0.00000131,-0.00000107,0.00000662,
 0.00000738,-0.00000245,-0.00001311,0.00000596,0.00001781,-0.00000139,-
 0.00000655,-0.00000857,-0.00000689,0.00018769,0.00006824,0.00002751,0.
 00000382,0.00000383,0.00000199,-0.00004064,-0.00001205,-0.00002504,0.0
 0001815,-0.00003072,0.00000030,-0.00001032,-0.00021156,-0.00007605,-0.
 00001277,0.00004288,-0.00002243,0.00003481,-0.00001021,-0.00000815,-0.
 00001013,0.00004468,0.00000480,0.00070390,-0.00040872,0.00011410,0.000
 10450,0.00008057,-0.00020905,-0.00003757,0.00000095,-0.00001386,0.0000
 0916,0.00001461,-0.00001119,0.00004449,0.00009337,-0.00001519,-0.00000
 893,0.00000349,0.00002227,-0.00000366,-0.00001513,-0.00000398,0.000067
 59,0.00014384,0.00002861,-0.00006802,-0.00003487,-0.00000054,-0.000012
 84,-0.00003708,0.00000570,-0.00000185,-0.00000127,0.00000388,0.0000003
 0,0.00000117,-0.00000054,0.00000107,0.00000013,0.00000008,-0.00000300,
 -0.00000022,0.00000619,-0.00000061,-0.00000029,-0.00000051,0.00005804,
 0.00001984,0.00002876,0.00001540,-0.00000980,-0.00002030,0.00001156,0.
 00001270,0.00000007,-0.00016829,-0.00007088,-0.00000294,0.00000505,-0.
 00003630,-0.00001138,-0.00001869,0.00001432,-0.00000042,-0.00000004,-0
 .00000048,-0.00000155,-0.00000076,0.00000019,0.00000047,-0.00000022,0.
 00000022,-0.00000028,0.00000038,0.00000066,0.00000041,0.00000008,-0.00
 000045,-0.00000029,0.00000010,-0.00000022,0.00000135,-0.00000046,0.000
 00047,-0.00000057,0.00000054,-0.00000032,-0.00000041,0.00000056,0.0000
 0079,0.00000021,-0.00000063,-0.00000165,0.00000228,-0.00000228,0.00000
 090,-0.00000125,0.00000185,0.00000016,-0.00000036,-0.00000080,0.000000
 13,0.00000062,-0.00001058,-0.00000442,-0.00000968,0.00000250,-0.000003
 60,0.00000558,-0.00000312,-0.00000237,-0.00000183,-0.00000191,0.000003
 67,0.00000194,-0.00000016,-0.00000419,0.00000075,0.00000392,-0.0000030
 9,0.00000354,0.00000447,0.00000085,0.00000228,-0.00000078,-0.00000591,
 -0.00000138,-0.00000416,-0.00000112,0.00000351,0.00000088,0.00000472,0
 .00000463,0.00000108,-0.00000203,-0.00000787,-0.00000108,-0.00000528,0
 .00000174,-0.00000688,0.00000319,0.00000059,-0.00000230,0.00001023,-0.
 00000820,0.00000218,0.00000222,-0.00001067,-0.00000327,0.00000314,-0.0
 0000254,0.00000272,0.00000286,0.00000925,-0.00001152,0.00000027,0.0000
 0816,0.00000694,-0.00000358,-0.00000493,-0.00000048,0.00000042,-0.0000
 0066,-0.00002059,0.00000832,-0.00000056,0.00000054,-0.00000107,-0.0000
 0089,0.00000045,-0.00000108,0.00000130,-0.00000669,0.00000636,0.000011
 53,-0.00000016,0.00000012,-0.00000271,-0.00000053,-0.00000103,-0.00000
 207,0.00000153,-0.00000077,-0.00000006,0.00002842,-0.00001360,-0.00000
 269,-0.00001024,0.00000909,-0.00002429,0.00216954,0.00553709,0.0021565
 8,-0.00057844,0.00016106,-0.00063361,0.01717045,-0.00281508,-0.0044349
 5,0.00086510,0.00319860,0.00392970,-0.00026431,-0.00044286,-0.00057859
 ,0.11063016,-0.00380516,-0.09433319,-0.00170399,-0.00194786,-0.0017595
 5,-0.00633850,0.00179628,0.00568504,-0.00025993,0.00018167,0.00027448,
 -0.12125923,0.00037579,0.09173735,-0.00000422,-0.00000015,0.00000225,0
 .00000231,0.00000211,-0.00000122,-0.00000371,-0.00000078,0.00000094,-0
 .00000179,-0.00000297,0.00000062,-0.00000074,-0.00000005,-0.00000185,0
 .00000110,-0.00000078,-0.00000021,-0.00000025,-0.00000068,-0.00000008,
 0.00000081,-0.00000133,-0.00000030,0.00000531,0.00000320,-0.00000030,0
 .00001469,0.00000141,0.00000503,0.00000183,-0.00000260,-0.00000576,0.0
 0000005,0.00000127,0.00000025,-0.00000866,0.00000826,0.00000190,-0.000
 00017,-0.00000395,-0.00000116,0.00000373,0.00000371,0.00000310,0.00002
 897,-0.00001072,-0.00007615,0.00000008,-0.00000059,-0.00000139,-0.0000
 4608,0.00007385,0.00002456,0.00000151,-0.00001236,0.00001377,-0.000026
 78,-0.00000525,0.00001143,0.00000988,-0.00002200,0.00002756,-0.0000195
 0,-0.00001320,-0.00000210,0.00000494,0.00000353,0.00001014,-0.00011768
 ,-0.00028127,-0.00023254,0.00008137,-0.00001774,-0.00007752,0.00000455
 ,-0.00001031,0.00000002,-0.00000133,-0.00000260,-0.00000026,-0.0000005
 1,-0.00002821,0.00000629,0.00000216,0.00000753,-0.00001202,-0.00000051
 ,0.00000850,-0.00000394,0.00000791,0.00001189,0.00000419,0.00000037,-0
 .00000222,-0.00000272,-0.00000189,0.00000069,0.00000037,0.00000105,-0.
 00000009,-0.00000034,-0.00000003,-0.00000025,0.00000020,-0.00000062,0.
 ,0.00000016,0.00000067,-0.00000036,-0.00000092,0.00000014,0.00000032,-
 0.00000031,0.00002107,0.00000055,0.00001548,0.00000585,-0.00000441,0.0
 0000298,-0.00000485,-0.00000482,-0.00000176,-0.00002375,-0.00001663,0.
 00000967,0.00000213,0.00000812,0.00000037,0.00000364,-0.00000727,-0.00
 000160,0.00000038,0.00000058,0.00000117,0.00000035,-0.00000004,-0.0000
 0082,0.00000036,0.00000107,0.00000080,-0.00000079,-0.00000118,-0.00000
 023,0.00000028,0.00000026,0.00000017,0.00000005,-0.00000021,-0.0000005
 5,-0.00000001,0.00000011,0.00000004,0.00000007,0.00000019,0.00000022,-
 0.00000037,-0.00000063,-0.00000024,0.00000036,0.00000044,-0.00000100,0
 .00000030,0.00000023,0.00000071,0.00000012,0.00000004,-0.00000009,0.00
 000002,0.00000018,-0.00000038,-0.00000083,-0.00000083,0.00000157,-0.00
 000009,0.00000140,-0.00000191,-0.00000087,-0.00000078,-0.00000027,0.00
 000013,-0.00000005,0.,-0.00000041,-0.00000003,0.00000016,-0.00000082,0
 .00000057,-0.00000010,-0.00000009,-0.00000064,-0.00000046,-0.00000048,
 0.00000041,0.00000021,0.00000046,-0.00000019,0.00000009,0.00000088,0.0
 0000221,-0.00000052,0.00000039,-0.00000077,-0.00000125,-0.00000073,-0.
 00000082,-0.00000006,-0.00000070,0.00000067,0.00000050,-0.00001742,-0.
 00000795,0.00000272,-0.00000787,-0.00001104,0.00000368,0.00001465,-0.0
 0000214,0.00001409,0.00001080,-0.00001227,-0.00000310,0.00000203,0.000
 00788,-0.00001302,-0.00001289,0.00000985,0.00000122,0.00000097,-0.0000
 0349,-0.00000229,0.00001950,-0.00000922,-0.00000387,0.00000208,0.00000
 072,-0.00000020,-0.00000305,-0.00000101,-0.00000110,0.00000321,-0.0000
 0303,-0.00000362,0.00000020,0.00000124,0.00000090,0.00000064,-0.000000
 03,0.00000227,-0.00000185,-0.00000003,0.00000013,-0.00002091,0.0000104
 9,-0.00000299,0.00000174,-0.00000055,0.00001243,-0.00086711,0.00045450
 ,-0.00028161,-0.00293294,0.00273187,0.00357917,-0.00050582,0.00397422,
 0.00130109,-0.00334598,-0.01916598,0.01675587,-0.00024503,-0.00085881,
 0.00090078,0.00824883,0.01280536,-0.01170971,0.00034504,0.00058421,-0.
 00049674,-0.07522646,-0.05301043,0.05929259,0.00034055,-0.00086062,-0.
 00175148,0.00005833,-0.00139615,-0.00121748,0.07419775,-0.00000436,-0.
 00000085,0.00000362,-0.00001187,-0.00000469,-0.00000916,0.00002064,0.0
 0000532,-0.00000711,-0.00001169,-0.00000939,0.00000343,-0.00002870,-0.
 00001671,0.00000104,-0.00000034,-0.00000555,-0.00000329,-0.00000154,-0
 .00000137,-0.00000108,0.00000077,-0.00000279,-0.00000230,-0.00003335,-
 0.00001006,-0.00001535,-0.00000369,0.00000095,-0.00003016,0.00001686,0
 .00002196,0.00004124,0.00000496,-0.00000343,0.00000246,-0.00000001,0.0
 0000893,0.00001064,0.00002499,0.00000483,-0.00000575,0.00003083,0.0000
 2047,-0.00001112,-0.00005453,0.00003822,0.00018991,-0.00001544,-0.0000
 0392,0.00001007,0.00008446,-0.00017423,-0.00007891,-0.00001281,0.00009
 323,-0.00000367,-0.00001069,0.00002071,0.00003777,0.00002184,-0.000047
 53,0.00001784,-0.00003820,0.00003263,0.00002899,-0.00000891,0.00000163
 ,-0.00004622,-0.00031037,-0.00024084,-0.00032993,0.00001514,-0.0000670
 2,0.00002858,-0.00001406,0.00000261,-0.00002888,0.00000092,-0.00000458
 ,-0.00000171,-0.00001562,-0.00005495,0.00002502,-0.00000018,0.00000470
 ,-0.00000991,-0.00000217,0.00001288,-0.00000396,-0.00001195,-0.0000011
 2,-0.00000222,-0.00000707,0.00000049,0.00000651,0.00000450,-0.00000528
 ,-0.00000004,0.00000477,0.00000149,-0.00000589,-0.00000065,-0.00000184
 ,0.00000138,-0.00000273,-0.00000047,0.00000070,0.00000791,0.00000112,-
 0.00001021,-0.00000081,-0.00000080,0.00000135,-0.00004064,0.00001550,-
 0.00002707,-0.00001461,0.00000465,-0.00001367,-0.00002765,-0.00002485,
 -0.00000127,0.00005378,0.00002375,-0.00003702,0.00000620,0.00001907,0.
 00001651,-0.00000247,-0.00003958,0.00000796,0.00000136,-0.00000158,0.0
 0000146,0.00000050,0.00000038,-0.00000004,0.00000070,0.00000071,0.0000
 0138,-0.00000109,-0.00000194,-0.00000051,-0.00000037,0.00000097,0.0000
 0031,-0.00000071,0.00000152,-0.00000109,0.00000046,-0.00000010,0.00000
 023,-0.00000086,0.00000027,0.00000104,-0.00000057,-0.00000121,-0.00000
 062,-0.00000035,0.00000228,-0.00000234,0.00000238,-0.00000174,0.000001
 09,-0.00000164,0.00000017,0.00000083,0.00000074,0.00000038,-0.00000112
 ,-0.00000289,0.00000202,-0.00000780,0.00000167,-0.00000387,0.00000773,
 0.00000056,0.00000352,0.00000054,0.00000089,0.00000101,-0.00000193,0.0
 0000185,-0.00000325,0.00000121,0.00000166,-0.00000224,0.00000173,-0.00
 000207,-0.00000039,-0.00000396,0.00000056,0.00000537,-0.00000058,0.000
 00225,-0.00000272,0.00000282,-0.00000178,-0.00000410,0.00000215,-0.000
 00126,-0.00000004,-0.00000115,0.00000201,-0.00000112,0.00000239,0.0000
 0114,0.00000057,-0.00000196,0.00000433,-0.00001217,0.00000059,0.000001
 31,-0.00000416,-0.00000176,0.00000565,0.00000428,0.00001363,-0.0000075
 5,-0.00000202,-0.00001338,0.00000656,-0.00000102,-0.00000258,-0.000010
 09,0.00000878,0.00000629,0.00000200,-0.00000395,-0.00000119,0.00002800
 ,-0.00001089,0.00000691,-0.00000054,0.00000101,0.00000054,-0.00000406,
 -0.00000009,-0.00000132,0.00000829,-0.00000690,-0.00001220,0.00000030,
 0.00000014,0.00000314,0.00000063,0.00000123,0.00000303,-0.00000215,0.0
 0000087,0.00000035,-0.00004187,0.00001927,-0.00000138,-0.00000187,-0.0
 0000299,0.00002011,0.00048927,-0.00013004,-0.00080501,0.00183831,0.002
 75911,0.00175624,0.00477777,-0.00069879,0.00239213,0.00305751,0.004623
 82,-0.00277527,0.00022283,0.00016390,-0.00007795,-0.00930427,-0.010848
 56,0.01474983,-0.00043323,-0.00042332,0.00076424,-0.05308246,-0.178655
 18,0.12882541,-0.00116053,-0.00053655,-0.00160834,-0.00108961,-0.00016
 451,-0.00189140,0.05507891,0.18431053,0.00000011,0.00000134,0.00000144
 ,0.00000664,0.00000532,0.00000279,-0.00001332,-0.00000700,0.00000410,-
 0.00000091,-0.00000139,0.00000304,0.00001382,0.00000737,-0.00000430,0.
 00000057,0.00000008,0.00000201,0.00000155,-0.00000006,0.00000163,-0.00
 000026,0.00000002,0.00000179,0.00001298,0.00000760,0.00000037,0.000005
 72,0.00000296,0.00001066,-0.00000634,-0.00000550,-0.00001744,0.0000001
 5,-0.00000230,0.00000046,-0.00000400,-0.00000057,-0.00000828,-0.000008
 67,0.00000005,-0.00000235,-0.00002681,-0.00002062,0.00000786,0.0000395
 1,-0.00002237,-0.00006139,0.00001582,0.00000563,-0.00001000,-0.0000388
 6,0.00006453,0.00000661,0.00001426,0.00001436,0.00000152,-0.00000822,-
 0.00007015,0.00000710,-0.00000002,-0.00000977,0.00000257,0.00002939,0.
 00007305,-0.00000774,-0.00001266,0.00002297,0.00000252,-0.00048542,-0.
 00041240,-0.00044752,0.00006885,-0.00002109,0.00000959,-0.00005887,0.0
 0000648,-0.00001912,0.00000644,0.00000891,-0.00001734,0.00003236,-0.00
 000198,0.00002010,-0.00000322,-0.00000002,-0.00000790,-0.00000545,-0.0
 0000266,-0.00000587,0.00001063,0.00000739,0.00001286,0.00000458,-0.000
 00148,-0.00000077,-0.00000402,0.00000279,0.00000078,-0.00000510,-0.000
 00220,0.00000758,0.00000063,0.00000213,-0.00000126,0.00000248,0.000000
 31,-0.00000044,-0.00000771,-0.00000235,0.00001195,0.00000070,0.0000013
 3,-0.00000196,0.00002554,-0.00000027,0.00002511,0.00000459,-0.00000338
 ,0.00000189,0.00002655,0.00002365,-0.00000150,-0.00004152,-0.00001164,
 0.00000261,-0.00000266,-0.00003249,-0.00001256,-0.00000149,0.00002582,
 -0.00001324,-0.00000072,0.00000219,-0.00000047,-0.00000094,-0.00000044
 ,0.00000002,-0.00000026,-0.00000029,-0.00000085,0.00000035,0.00000143,
 0.00000034,0.00000054,-0.00000109,-0.00000043,0.00000044,-0.00000172,0
 .00000092,-0.00000063,0.00000066,-0.00000058,0.00000130,-0.00000039,-0
 .00000108,0.00000035,0.00000094,0.00000050,-0.00000051,-0.00000219,0.0
 0000218,-0.00000155,0.00000155,-0.00000054,0.00000207,-0.00000049,-0.0
 0000092,-0.00000068,0.00000068,0.00000033,0.00000150,-0.00000555,0.000
 00253,-0.00000114,0.00000157,-0.00000338,-0.00000086,-0.00000319,-0.00
 000066,0.00000011,-0.00000061,0.00000150,-0.00000088,0.00000185,-0.000
 00124,-0.00000225,0.00000401,-0.00000039,0.00000297,-0.00000059,0.0000
 0258,0.00000021,-0.00000587,0.00000040,-0.00000215,0.00000216,-0.00000
 216,0.00000075,0.00000622,-0.00000020,0.00000124,-0.00000154,-0.000001
 09,-0.00000195,0.00000002,-0.00000220,-0.00000122,-0.00000010,0.000001
 62,-0.00001057,0.00000680,-0.00000261,0.00000458,0.00000669,-0.0000089
 8,-0.00000503,0.00000434,-0.00000657,0.00000305,0.00001191,0.00000864,
 -0.00000409,-0.00000491,0.00001506,0.00000877,-0.00000392,-0.00000664,
 -0.00000152,-0.00000132,-0.00000013,-0.00003710,0.00001205,-0.00000262
 ,0.00000050,-0.00000138,-0.00000091,0.00000122,-0.00000079,0.00000173,
 -0.00001031,0.00000988,0.00001720,-0.00000025,0.,-0.00000392,-0.000001
 08,-0.00000140,-0.00000327,0.00000266,-0.00000094,-0.00000015,0.000043
 50,-0.00002148,-0.00000392,-0.00000093,0.00000063,0.00000366,-0.000202
 22,-0.00067814,-0.00025190,0.00417913,0.00120914,0.00362409,0.00063904
 ,0.00282150,0.00435710,0.00171198,0.00964610,-0.00451996,0.00016234,0.
 00056925,-0.00024288,0.00348850,0.00241655,-0.00054293,0.00027456,0.00
 010808,-0.00003486,0.05924787,0.12883749,-0.15627482,-0.00156076,-0.00
 177811,-0.00174078,-0.00142393,-0.00171804,-0.00181915,-0.06609434,-0.
 14110163,0.15793483\\0.00000011,0.00000134,-0.00000115,0.00000189,0.00
 000248,-0.00000175,0.,0.00000186,-0.00000003,0.00000006,0.00000184,-0.
 00000137,0.00000147,0.00000241,-0.00000306,0.00000124,0.00000295,-0.00
 000056,0.00000115,0.00000186,-0.00000229,0.00000141,0.00000275,-0.0000
 0156,0.00000105,0.00000211,-0.00000137,-0.00000155,-0.00000045,-0.0000
 0163,0.00000131,0.00000300,-0.00000007,0.00000095,0.00000235,0.0000006
 1,-0.00000176,-0.00000198,-0.00000223,0.00000216,0.00000237,0.00000064
 ,-0.00000281,-0.00000158,-0.00000256,0.00000214,0.00000212,-0.00000028
 ,0.00000211,0.00000021,0.00000184,-0.00000052,-0.00000653,0.00001089,-
 0.00000361,0.00000926,-0.00001098,-0.00001013,-0.00000222,0.00000029,0
 .00000696,0.00000079,0.00000474,-0.00000206,-0.00000079,-0.00000133,-0
 .00000133,-0.00000150,0.00000159,0.00000287,-0.00000271,-0.00000005,-0
 .00000075,-0.00000143,0.00000089,-0.00000017,-0.00000072,0.00000017,0.
 00000019,-0.00000246,0.00000038,-0.00000280,-0.00000128,-0.00000162,-0
 .00000052,-0.00000100,-0.00000006,0.00000044,0.00000091,0.00000064,-0.
 00000015,0.00000146,0.00000124,-0.00000156,0.00000076,0.00000161,0.000
 00064,0.00000220,0.00000211,-0.00000172,-0.00000405,-0.00000501,-0.000
 00063,-0.00000040,-0.00000345,0.00000058,-0.00000099,-0.00000203,0.000
 00384,0.00000229,-0.00000431,-0.00000244,0.00000001,-0.00000334,-0.000
 00215,0.00000202,0.,0.00000051,0.00000049,0.00000165,0.00000089,0.0000
 0258,-0.00000173,0.00000159,-0.00000175,0.00000209,0.00000507,-0.00000
 360,0.00000567,0.00000597,0.00000326,-0.00000325,-0.00000026,-0.000002
 22,-0.00000048,0.00000162,0.00000048,-0.00000123,-0.00000058,-0.000001
 27,-0.00000234,-0.00000093,-0.00000059,-0.00000252,-0.00000041,-0.0000
 0126,-0.00000096,0.00000007,-0.00000200,-0.00000308,-0.00000037,-0.000
 00148,-0.00000238,-0.00000040,-0.00000198,-0.00000305,0.00000045,-0.00
 000129,-0.00000341,-0.00000083,-0.00000169,-0.00000097,-0.00000072,0.0
 0000009,-0.00000052,-0.00000069,-0.00000208,-0.00000093,-0.00000028,-0
 .00000204,-0.00000193,-0.00000114,-0.00000146,-0.00000030,0.00000024,-
 0.00000046,0.00000044,-0.00000051,0.00000124,0.,0.00000064,0.00000039,
 0.00000038,-0.00000063,-0.00000044,-0.00000023,-0.00000073,-0.00000004
 ,0.00000093,-0.00000128,-0.00000088,0.00000063,-0.00000036,-0.00000283
 ,0.00000155,-0.00000063,-0.00000128,0.00000010,-0.00000058,-0.00000002
 ,0.00000132,-0.00000079,-0.00000143,0.00000229,-0.00000004,-0.00000121
 ,0.00000038,-0.00000068,0.00000049,0.00000108,0.00000037,-0.00000004,0
 .00000178,0.00000077,-0.00000100,0.00000118,0.00000074,0.00000057,-0.0
 0000004,-0.00000022,-0.00000065,0.00000076,-0.00000034,-0.00000105,0.0
 0000054,0.00000029,0.00000016,0.00000025,0.00000036,0.00000124,-0.0000
 0002,-0.00000027,-0.00000027,0.00000039,-0.00000059,-0.00000105,0.0000
 0069,0.00000040,0.00000096,-0.00000006,-0.00000050,-0.00000081,0.00000
 069,-0.00000053,-0.00000123,0.00000023,-0.00000060,-0.00000089,0.00000
 107,-0.00000040,-0.00000076,0.00000056,0.00000013,0.00000005,0.0000001
 6,-0.00000033,-0.00000121,-0.00000201,0.00000029,-0.00000047,0.0000019
 9,0.00000006,0.00000118,0.00000348,-0.00000138,0.00000065,0.00000157,-
 0.00000012,0.00000084,0.00000337,-0.00000045,0.00000058,0.00000163,0.0
 0000081,0.00000082,0.00000326,0.00000277,0.00000255,0.00000188,-0.0000
 0074,0.00000116,0.00000285,-0.00000038,0.00000082,0.00000311,-0.000000
 25,0.00000127,0.00000252,-0.00000003,0.00000161,0.00000343\\\@


 IF YOU BELIEVE CERTAIN WORDS, YOU BELIEVE THEIR HIDDEN ARGUMENTS.
 WHEN YOU BELIEVE SOMETHING IS RIGHT OR WRONG, TRUE OR FALSE, 
 YOU BELIEVE THE ASSUMPTIONS IN THE WORDS WHICH EXPRESS THE ARGUMENTS.
 SUCH ASSUMPTIONS ARE OFTEN FULL OF HOLES, BUT REMAIN MOST PRECIOUS 
 TO THE CONVINCED.

                 -- THE OPEN-ENDED PROOF FROM THE PANOPLIA PROPHETICA
                    CHILDREN OF DUNE BY FRANK HERBERT
 Job cpu time:       1 days 13 hours 14 minutes 15.1 seconds.
 Elapsed time:       0 days  3 hours  6 minutes 22.8 seconds.
 File lengths (MBytes):  RWF=  18831 Int=      0 D2E=      0 Chk=    143 Scr=      1
 Normal termination of Gaussian 16 at Fri Aug  5 09:27:55 2022.
