 Entering Gaussian System, Link 0=g16
 Input=Pro_R_E_c2_4_m06l.com
 Output=Pro_R_E_c2_4_m06l.log
 Initial command:
 /apps/gaussian16/B.01/AVX2/g16/l1.exe "/tmp/51822068/Gau-6271.inp" -scrdir="/tmp/51822068/"
 Entering Link 1 = /apps/gaussian16/B.01/AVX2/g16/l1.exe PID=      6272.
  
 Copyright (c) 1988-2017, Gaussian, Inc.  All Rights Reserved.
  
 This is part of the Gaussian(R) 16 program.  It is based on
 the Gaussian(R) 09 system (copyright 2009, Gaussian, Inc.),
 the Gaussian(R) 03 system (copyright 2003, Gaussian, Inc.),
 the Gaussian(R) 98 system (copyright 1998, Gaussian, Inc.),
 the Gaussian(R) 94 system (copyright 1995, Gaussian, Inc.),
 the Gaussian 92(TM) system (copyright 1992, Gaussian, Inc.),
 the Gaussian 90(TM) system (copyright 1990, Gaussian, Inc.),
 the Gaussian 88(TM) system (copyright 1988, Gaussian, Inc.),
 the Gaussian 86(TM) system (copyright 1986, Carnegie Mellon
 University), and the Gaussian 82(TM) system (copyright 1983,
 Carnegie Mellon University). Gaussian is a federally registered
 trademark of Gaussian, Inc.
  
 This software contains proprietary and confidential information,
 including trade secrets, belonging to Gaussian, Inc.
  
 This software is provided under written license and may be
 used, copied, transmitted, or stored only in accord with that
 written license.
  
 The following legend is applicable only to US Government
 contracts under FAR:
  
                    RESTRICTED RIGHTS LEGEND
  
 Use, reproduction and disclosure by the US Government is
 subject to restrictions as set forth in subparagraphs (a)
 and (c) of the Commercial Computer Software - Restricted
 Rights clause in FAR 52.227-19.
  
 Gaussian, Inc.
 340 Quinnipiac St., Bldg. 40, Wallingford CT 06492
  
  
 ---------------------------------------------------------------
 Warning -- This program may not be used in any manner that
 competes with the business of Gaussian, Inc. or will provide
 assistance to any competitor of Gaussian, Inc.  The licensee
 of this program is prohibited from giving any competitor of
 Gaussian, Inc. access to this program.  By using this program,
 the user acknowledges that Gaussian, Inc. is engaged in the
 business of creating and licensing software in the field of
 computational chemistry and represents and warrants to the
 licensee that it is not a competitor of Gaussian, Inc. and that
 it will not use this program in any manner prohibited above.
 ---------------------------------------------------------------
  

 Cite this work as:
 Gaussian 16, Revision B.01,
 M. J. Frisch, G. W. Trucks, H. B. Schlegel, G. E. Scuseria, 
 M. A. Robb, J. R. Cheeseman, G. Scalmani, V. Barone, 
 G. A. Petersson, H. Nakatsuji, X. Li, M. Caricato, A. V. Marenich, 
 J. Bloino, B. G. Janesko, R. Gomperts, B. Mennucci, H. P. Hratchian, 
 J. V. Ortiz, A. F. Izmaylov, J. L. Sonnenberg, D. Williams-Young, 
 F. Ding, F. Lipparini, F. Egidi, J. Goings, B. Peng, A. Petrone, 
 T. Henderson, D. Ranasinghe, V. G. Zakrzewski, J. Gao, N. Rega, 
 G. Zheng, W. Liang, M. Hada, M. Ehara, K. Toyota, R. Fukuda, 
 J. Hasegawa, M. Ishida, T. Nakajima, Y. Honda, O. Kitao, H. Nakai, 
 T. Vreven, K. Throssell, J. A. Montgomery, Jr., J. E. Peralta, 
 F. Ogliaro, M. J. Bearpark, J. J. Heyd, E. N. Brothers, K. N. Kudin, 
 V. N. Staroverov, T. A. Keith, R. Kobayashi, J. Normand, 
 K. Raghavachari, A. P. Rendell, J. C. Burant, S. S. Iyengar, 
 J. Tomasi, M. Cossi, J. M. Millam, M. Klene, C. Adamo, R. Cammi, 
 J. W. Ochterski, R. L. Martin, K. Morokuma, O. Farkas, 
 J. B. Foresman, and D. J. Fox, Gaussian, Inc., Wallingford CT, 2016.
 
 ******************************************
 Gaussian 16:  ES64L-G16RevB.01 20-Dec-2017
                24-Aug-2022 
 ******************************************
 %nprocshared=12
 Will use up to   12 processors via shared memory.
 %mem=24GB
 --------------------------------------------------------------------
 #m06l/gen pseudo=read integral=ultrafine temperature=308 scrf=(read)
 --------------------------------------------------------------------
 1/38=1,40=2,112=308000,172=1/1;
 2/12=2,17=6,18=5,40=1/2;
 3/5=7,11=2,16=1,17=8,25=1,30=1,70=2203,74=-53,75=-5/1,2,3;
 4//1;
 5/5=2,38=5/2;
 6/7=2,8=2,9=2,10=2,28=1/1;
 99/5=1,9=1/99;
 -------------------
 Title Card Required
 -------------------
 Symbolic Z-matrix:
 Charge =  0 Multiplicity = 4
 C                     2.44238  -2.13665   3.28872 
 C                     1.57707  -1.54177   4.21678 
 C                     0.37545  -0.92561   3.77204 
 C                     0.11493  -0.91756   2.34376 
 C                     2.12926  -2.06455   1.91853 
 H                    -0.41206  -0.27994   5.71031 
 H                     3.35589  -2.65813   3.60664 
 H                     1.80681  -1.56406   5.29324 
 C                    -0.59534  -0.3169    4.62557 
 C                    -1.98739   0.10565   2.69287 
 C                    -1.77652   0.19742   4.08238 
 H                    -2.55533   0.64121   4.71933 
 N                    -1.03857  -0.41147   1.84016 
 N                     1.00947  -1.4292    1.46084 
 C                     2.92619  -2.70224   0.8734 
 C                    -3.22809   0.4304    2.01559 
 N                     2.67088  -2.61056  -0.4003 
 N                    -3.39666   0.19646   0.73453 
 Ni                   -1.56528  -0.38277  -0.10908 
 C                     1.68055   0.49425  -0.6163 
 C                     2.25964   1.23624   0.36376 
 C                    -0.9504   -0.09715  -2.36991 
 H                    -1.60077  -0.82542  -2.88663 
 C                    -1.5345    1.09194  -1.92464 
 H                    -0.88547   1.81428  -1.39251 
 C                     0.46505  -0.44334  -2.32299 
 H                     0.7409   -1.25869  -3.01587 
 C                     1.49408   0.67558  -2.08689 
 H                     1.13369   1.68782  -2.39921 
 H                     2.20156   0.85536   1.39986 
 C                    -5.30143   1.20054   1.68343 
 H                    -5.32149   2.29682   1.50805 
 H                    -6.27738   0.88231   2.09608 
 C                     4.54561  -4.02627   0.05423 
 H                     4.55159  -5.13118   0.13372 
 H                     5.59422  -3.66746  -0.00146 
 C                     3.64121  -3.48843  -1.0994 
 H                     3.06452  -4.32791  -1.55221 
 C                    -4.82897   0.40703   0.43436 
 H                    -4.9252    1.03004  -0.47924 
 O                     3.95861  -3.48869   1.26832 
 O                    -4.28176   0.93137   2.69539 
 Ni                    0.77529  -1.17922  -0.4852 
 Cl                   -1.15302  -2.69822  -0.49958 
 C                     4.42793  -2.81039  -2.26952 
 C                     5.13239  -1.52526  -1.78884 
 H                     4.40041  -0.79472  -1.38674 
 H                     5.87944  -1.7292   -0.99232 
 H                     5.67604  -1.04518  -2.6293 
 C                     5.46742  -3.81926  -2.81101 
 H                     4.98343  -4.76782  -3.12854 
 H                     5.9852   -3.39489  -3.69652 
 H                     6.25006  -4.06715  -2.06357 
 C                     3.43952  -2.47282  -3.40272 
 H                     2.6555   -1.77924  -3.04725 
 H                     3.96692  -1.99393  -4.25431 
 H                     2.93699  -3.38714  -3.78411 
 C                    -5.59779  -0.93933   0.17312 
 C                    -5.5306   -1.87073   1.40204 
 H                    -4.48229  -2.14288   1.64283 
 H                    -5.98815  -1.41531   2.30544 
 H                    -6.07952  -2.81359   1.19672 
 C                    -4.97025  -1.65217  -1.04314 
 H                    -5.02302  -1.01365  -1.94905 
 H                    -3.9057   -1.90884  -0.86441 
 H                    -5.51577  -2.59521  -1.25878 
 C                    -7.06937  -0.5989   -0.15363 
 H                    -7.14058   0.0834   -1.02735 
 H                    -7.63024  -1.52424  -0.40162 
 H                    -7.59418  -0.11779   0.69877 
 C                     2.96383   2.52758   0.254 
 C                     3.34002   3.20186   1.44441 
 C                     3.31136   3.1615   -0.97385 
 C                     4.00864   4.43691   1.43454 
 H                     3.09591   2.73977   2.41562 
 C                     3.97684   4.39024  -1.00042 
 H                     3.06907   2.6785   -1.93068 
 C                     4.33178   5.047     0.20211 
 H                     4.27322   4.91258   2.38979 
 H                     4.24315   4.86882  -1.95583 
 C                     5.36266   6.93998   1.24823 
 H                     4.48325   7.2087    1.8759 
 H                     6.076     6.34845   1.86531 
 H                     5.862     7.86853   0.91303 
 O                     4.97843   6.24289   0.06943 
 H                     2.43217   0.47581  -2.65413 
 C                    -2.84623   1.63141  -2.31632 
 C                    -3.68432   1.02164  -3.28783 
 C                    -3.27997   2.86187  -1.75262 
 C                    -4.90564   1.60474  -3.65779 
 H                    -3.36595   0.08727  -3.77564 
 C                    -4.5002    3.44614  -2.12566 
 H                    -2.63871   3.36316  -1.00892 
 C                    -5.32536   2.81825  -3.07794 
 H                    -5.53329   1.11223  -4.41788 
 H                    -4.80798   4.40254  -1.67301 
 H                    -6.2808    3.27705  -3.37748 
 
 Stoichiometry    C41H46ClN4Ni2O3(4)
 Framework group  C1[X(C41H46ClN4Ni2O3)]
 Deg. of freedom   285
 Full point group                 C1      NOp   1
 Largest Abelian subgroup         C1      NOp   1
 Largest concise Abelian subgroup C1      NOp   1
                         Standard orientation:                         
 ---------------------------------------------------------------------
 Center     Atomic      Atomic             Coordinates (Angstroms)
 Number     Number       Type             X           Y           Z
 ---------------------------------------------------------------------
      1          6           0        2.442376   -2.136646    3.288723
      2          6           0        1.577067   -1.541767    4.216779
      3          6           0        0.375452   -0.925605    3.772035
      4          6           0        0.114930   -0.917558    2.343758
      5          6           0        2.129255   -2.064555    1.918533
      6          1           0       -0.412058   -0.279936    5.710310
      7          1           0        3.355892   -2.658133    3.606644
      8          1           0        1.806812   -1.564056    5.293237
      9          6           0       -0.595336   -0.316900    4.625566
     10          6           0       -1.987389    0.105649    2.692868
     11          6           0       -1.776515    0.197418    4.082382
     12          1           0       -2.555327    0.641210    4.719331
     13          7           0       -1.038568   -0.411466    1.840159
     14          7           0        1.009474   -1.429200    1.460842
     15          6           0        2.926190   -2.702244    0.873402
     16          6           0       -3.228092    0.430398    2.015595
     17          7           0        2.670881   -2.610562   -0.400300
     18          7           0       -3.396656    0.196459    0.734532
     19         28           0       -1.565275   -0.382769   -0.109076
     20          6           0        1.680552    0.494246   -0.616295
     21          6           0        2.259642    1.236244    0.363764
     22          6           0       -0.950401   -0.097148   -2.369905
     23          1           0       -1.600771   -0.825424   -2.886627
     24          6           0       -1.534496    1.091941   -1.924641
     25          1           0       -0.885469    1.814281   -1.392514
     26          6           0        0.465048   -0.443340   -2.322991
     27          1           0        0.740899   -1.258689   -3.015874
     28          6           0        1.494078    0.675578   -2.086891
     29          1           0        1.133691    1.687820   -2.399210
     30          1           0        2.201556    0.855357    1.399862
     31          6           0       -5.301435    1.200542    1.683426
     32          1           0       -5.321492    2.296823    1.508053
     33          1           0       -6.277383    0.882310    2.096076
     34          6           0        4.545609   -4.026272    0.054227
     35          1           0        4.551587   -5.131182    0.133721
     36          1           0        5.594215   -3.667457   -0.001457
     37          6           0        3.641213   -3.488426   -1.099397
     38          1           0        3.064521   -4.327915   -1.552209
     39          6           0       -4.828974    0.407027    0.434356
     40          1           0       -4.925203    1.030039   -0.479236
     41          8           0        3.958614   -3.488685    1.268315
     42          8           0       -4.281756    0.931374    2.695391
     43         28           0        0.775292   -1.179223   -0.485198
     44         17           0       -1.153016   -2.698216   -0.499581
     45          6           0        4.427926   -2.810385   -2.269519
     46          6           0        5.132391   -1.525261   -1.788843
     47          1           0        4.400413   -0.794723   -1.386740
     48          1           0        5.879441   -1.729199   -0.992323
     49          1           0        5.676038   -1.045182   -2.629304
     50          6           0        5.467420   -3.819255   -2.811007
     51          1           0        4.983431   -4.767823   -3.128542
     52          1           0        5.985203   -3.394888   -3.696516
     53          1           0        6.250062   -4.067153   -2.063569
     54          6           0        3.439521   -2.472819   -3.402716
     55          1           0        2.655500   -1.779244   -3.047255
     56          1           0        3.966917   -1.993925   -4.254312
     57          1           0        2.936991   -3.387139   -3.784105
     58          6           0       -5.597787   -0.939328    0.173117
     59          6           0       -5.530603   -1.870729    1.402037
     60          1           0       -4.482285   -2.142878    1.642827
     61          1           0       -5.988145   -1.415309    2.305435
     62          1           0       -6.079524   -2.813585    1.196724
     63          6           0       -4.970247   -1.652166   -1.043142
     64          1           0       -5.023025   -1.013654   -1.949046
     65          1           0       -3.905704   -1.908840   -0.864413
     66          1           0       -5.515770   -2.595212   -1.258781
     67          6           0       -7.069369   -0.598901   -0.153628
     68          1           0       -7.140583    0.083403   -1.027349
     69          1           0       -7.630238   -1.524241   -0.401623
     70          1           0       -7.594177   -0.117789    0.698770
     71          6           0        2.963825    2.527581    0.254002
     72          6           0        3.340024    3.201864    1.444407
     73          6           0        3.311356    3.161497   -0.973846
     74          6           0        4.008638    4.436909    1.434539
     75          1           0        3.095908    2.739773    2.415619
     76          6           0        3.976836    4.390235   -1.000425
     77          1           0        3.069073    2.678503   -1.930682
     78          6           0        4.331782    5.047003    0.202110
     79          1           0        4.273216    4.912581    2.389792
     80          1           0        4.243150    4.868821   -1.955834
     81          6           0        5.362661    6.939980    1.248228
     82          1           0        4.483250    7.208696    1.875898
     83          1           0        6.076002    6.348448    1.865310
     84          1           0        5.862003    7.868527    0.913030
     85          8           0        4.978431    6.242890    0.069434
     86          1           0        2.432174    0.475805   -2.654125
     87          6           0       -2.846234    1.631414   -2.316316
     88          6           0       -3.684324    1.021639   -3.287826
     89          6           0       -3.279968    2.861870   -1.752623
     90          6           0       -4.905641    1.604743   -3.657793
     91          1           0       -3.365949    0.087269   -3.775639
     92          6           0       -4.500202    3.446136   -2.125659
     93          1           0       -2.638708    3.363156   -1.008921
     94          6           0       -5.325360    2.818252   -3.077935
     95          1           0       -5.533290    1.112230   -4.417881
     96          1           0       -4.807977    4.402544   -1.673012
     97          1           0       -6.280802    3.277048   -3.377478
 ---------------------------------------------------------------------
 Rotational constants (GHZ):           0.0628082           0.0404408           0.0352277
 General basis read from cards:  (5D, 7F)
 ======================================================================================================
                                       Pseudopotential Parameters
 ======================================================================================================
  Center     Atomic      Valence      Angular      Power
  Number     Number     Electrons     Momentum     of R      Exponent        Coefficient   SO-Coeffient
 ======================================================================================================
    1          6
                                   No pseudopotential on this center.
    2          6
                                   No pseudopotential on this center.
    3          6
                                   No pseudopotential on this center.
    4          6
                                   No pseudopotential on this center.
    5          6
                                   No pseudopotential on this center.
    6          1
                                   No pseudopotential on this center.
    7          1
                                   No pseudopotential on this center.
    8          1
                                   No pseudopotential on this center.
    9          6
                                   No pseudopotential on this center.
   10          6
                                   No pseudopotential on this center.
   11          6
                                   No pseudopotential on this center.
   12          1
                                   No pseudopotential on this center.
   13          7
                                   No pseudopotential on this center.
   14          7
                                   No pseudopotential on this center.
   15          6
                                   No pseudopotential on this center.
   16          6
                                   No pseudopotential on this center.
   17          7
                                   No pseudopotential on this center.
   18          7
                                   No pseudopotential on this center.
   19         28           18
                                      D and up 
                                                     1      469.9324331      -10.00000000    0.00000000
                                                     2       85.4236411      -69.40848050    0.00000000
                                                     2       21.2674984      -12.09510200    0.00000000
                                      S - D
                                                     0      162.1686097        3.00000000    0.00000000
                                                     1      176.5333232       22.02536180    0.00000000
                                                     2       68.9562010      443.01810880    0.00000000
                                                     2       13.5792838      145.56964110    0.00000000
                                      P - D
                                                     0       69.0181506        5.00000000    0.00000000
                                                     1      275.5955596        4.98828240    0.00000000
                                                     2       47.1315453      256.69458530    0.00000000
                                                     2       12.9874075       78.47544500    0.00000000
   20          6
                                   No pseudopotential on this center.
   21          6
                                   No pseudopotential on this center.
   22          6
                                   No pseudopotential on this center.
   23          1
                                   No pseudopotential on this center.
   24          6
                                   No pseudopotential on this center.
   25          1
                                   No pseudopotential on this center.
   26          6
                                   No pseudopotential on this center.
   27          1
                                   No pseudopotential on this center.
   28          6
                                   No pseudopotential on this center.
   29          1
                                   No pseudopotential on this center.
   30          1
                                   No pseudopotential on this center.
   31          6
                                   No pseudopotential on this center.
   32          1
                                   No pseudopotential on this center.
   33          1
                                   No pseudopotential on this center.
   34          6
                                   No pseudopotential on this center.
   35          1
                                   No pseudopotential on this center.
   36          1
                                   No pseudopotential on this center.
   37          6
                                   No pseudopotential on this center.
   38          1
                                   No pseudopotential on this center.
   39          6
                                   No pseudopotential on this center.
   40          1
                                   No pseudopotential on this center.
   41          8
                                   No pseudopotential on this center.
   42          8
                                   No pseudopotential on this center.
   43         28           18
                                      D and up 
                                                     1      469.9324331      -10.00000000    0.00000000
                                                     2       85.4236411      -69.40848050    0.00000000
                                                     2       21.2674984      -12.09510200    0.00000000
                                      S - D
                                                     0      162.1686097        3.00000000    0.00000000
                                                     1      176.5333232       22.02536180    0.00000000
                                                     2       68.9562010      443.01810880    0.00000000
                                                     2       13.5792838      145.56964110    0.00000000
                                      P - D
                                                     0       69.0181506        5.00000000    0.00000000
                                                     1      275.5955596        4.98828240    0.00000000
                                                     2       47.1315453      256.69458530    0.00000000
                                                     2       12.9874075       78.47544500    0.00000000
   44         17
                                   No pseudopotential on this center.
   45          6
                                   No pseudopotential on this center.
   46          6
                                   No pseudopotential on this center.
   47          1
                                   No pseudopotential on this center.
   48          1
                                   No pseudopotential on this center.
   49          1
                                   No pseudopotential on this center.
   50          6
                                   No pseudopotential on this center.
   51          1
                                   No pseudopotential on this center.
   52          1
                                   No pseudopotential on this center.
   53          1
                                   No pseudopotential on this center.
   54          6
                                   No pseudopotential on this center.
   55          1
                                   No pseudopotential on this center.
   56          1
                                   No pseudopotential on this center.
   57          1
                                   No pseudopotential on this center.
   58          6
                                   No pseudopotential on this center.
   59          6
                                   No pseudopotential on this center.
   60          1
                                   No pseudopotential on this center.
   61          1
                                   No pseudopotential on this center.
   62          1
                                   No pseudopotential on this center.
   63          6
                                   No pseudopotential on this center.
   64          1
                                   No pseudopotential on this center.
   65          1
                                   No pseudopotential on this center.
   66          1
                                   No pseudopotential on this center.
   67          6
                                   No pseudopotential on this center.
   68          1
                                   No pseudopotential on this center.
   69          1
                                   No pseudopotential on this center.
   70          1
                                   No pseudopotential on this center.
   71          6
                                   No pseudopotential on this center.
   72          6
                                   No pseudopotential on this center.
   73          6
                                   No pseudopotential on this center.
   74          6
                                   No pseudopotential on this center.
   75          1
                                   No pseudopotential on this center.
   76          6
                                   No pseudopotential on this center.
   77          1
                                   No pseudopotential on this center.
   78          6
                                   No pseudopotential on this center.
   79          1
                                   No pseudopotential on this center.
   80          1
                                   No pseudopotential on this center.
   81          6
                                   No pseudopotential on this center.
   82          1
                                   No pseudopotential on this center.
   83          1
                                   No pseudopotential on this center.
   84          1
                                   No pseudopotential on this center.
   85          8
                                   No pseudopotential on this center.
   86          1
                                   No pseudopotential on this center.
   87          6
                                   No pseudopotential on this center.
   88          6
                                   No pseudopotential on this center.
   89          6
                                   No pseudopotential on this center.
   90          6
                                   No pseudopotential on this center.
   91          1
                                   No pseudopotential on this center.
   92          6
                                   No pseudopotential on this center.
   93          1
                                   No pseudopotential on this center.
   94          6
                                   No pseudopotential on this center.
   95          1
                                   No pseudopotential on this center.
   96          1
                                   No pseudopotential on this center.
   97          1
                                   No pseudopotential on this center.
 ======================================================================================================
 There are  2094 symmetry adapted cartesian basis functions of A   symmetry.
 There are  1845 symmetry adapted basis functions of A   symmetry.
  1845 basis functions,  2989 primitive gaussians,  2094 cartesian basis functions
   200 alpha electrons      197 beta electrons
       nuclear repulsion energy      8264.1094505400 Hartrees.
 NAtoms=   97 NActive=   97 NUniq=   97 SFac= 1.00D+00 NAtFMM=   60 NAOKFM=T Big=T
 Integral buffers will be    131072 words long.
 Raffenetti 2 integral format.
 Two-electron integral symmetry is turned on.
 Using the following non-standard input for PCM:
 Eps=4.5
 --- end of non-standard input.
 ------------------------------------------------------------------------------
 Polarizable Continuum Model (PCM)
 =================================
 Model                : PCM.
 Atomic radii         : UFF (Universal Force Field).
 Polarization charges : Total charges.
 Charge compensation  : None.
 Solution method      : On-the-fly selection.
 Cavity type          : Scaled VdW (van der Waals Surface) (Alpha=1.100).
 Cavity algorithm     : GePol (No added spheres)
                        Default sphere list used, NSphG=   97.
                        Lebedev-Laikov grids with approx.  5.0 points / Ang**2.
                        Smoothing algorithm: York/Karplus (Gamma=1.0000).
                        Polarization charges: spherical gaussians, with
                                              point-specific exponents (IZeta= 3).
                        Self-potential: point-specific (ISelfS= 7).
                        Self-field    : sphere-specific E.n sum rule (ISelfD= 2).
 Solvent              : Water, Eps=   4.500000 Eps(inf)=   1.777849
 ------------------------------------------------------------------------------
 One-electron integrals computed using PRISM.
   1 Symmetry operations used in ECPInt.
 ECPInt:  NShTT=  274911 NPrTT=  843013 LenC2=  196436 LenP2D=  392683.
 LDataN:  DoStor=T MaxTD1= 6 Len=  172
 NBasis=  1845 RedAO= T EigKep=  7.78D-06  NBF=  1845
 NBsUse=  1845 1.00D-06 EigRej= -1.00D+00 NBFU=  1845
 ExpMin= 2.40D-02 ExpMax= 6.95D+04 ExpMxC= 2.37D+03 IAcc=3 IRadAn=         5 AccDes= 0.00D+00
 Harris functional with IExCor= 1009 and IRadAn=       5 diagonalized for initial guess.
 HarFok:  IExCor= 1009 AccDes= 0.00D+00 IRadAn=         5 IDoV= 1 UseB2=F ITyADJ=14
 ICtDFT=  3500011 ScaDFX=  1.000000  1.000000  1.000000  1.000000
 FoFCou: FMM=F IPFlag=           0 FMFlag=      100000 FMFlg1=        2001
         NFxFlg=           0 DoJE=T BraDBF=F KetDBF=T FulRan=T
         wScrn=  0.000000 ICntrl=       500 IOpCl=  0 I1Cent=   200000004 NGrid=           0
         NMat0=    1 NMatS0=      1 NMatT0=    0 NMatD0=    1 NMtDS0=    0 NMtDT0=    0
 Petite list used in FoFCou.
 Initial guess <Sx>= 0.0000 <Sy>= 0.0000 <Sz>= 1.5000 <S**2>= 3.7500 S= 1.5000
 Requested convergence on RMS density matrix=1.00D-08 within 128 cycles.
 Requested convergence on MAX density matrix=1.00D-06.
 Requested convergence on             energy=1.00D-06.
 No special actions if energy rises.
 Inv3:  Mode=1 IEnd=   110716875.
 Iteration    1 A*A^-1 deviation from unit magnitude is 3.55D-15 for   1127.
 Iteration    1 A*A^-1 deviation from orthogonality  is 2.44D-15 for   5604   2126.
 Iteration    1 A^-1*A deviation from unit magnitude is 4.22D-15 for   6005.
 Iteration    1 A^-1*A deviation from orthogonality  is 1.04D-13 for   5481   5449.
 EnCoef did     6 forward-backward iterations
 EnCoef did   100 forward-backward iterations
 EnCoef did     1 forward-backward iterations
 EnCoef did     6 forward-backward iterations
 EnCoef did     5 forward-backward iterations
 EnCoef did     5 forward-backward iterations
 EnCoef did     2 forward-backward iterations
 Restarting incremental Fock formation.
 Error on total polarization charges =  0.01775
 SCF Done:  E(UM06L) =  -2834.22094757     A.U. after   37 cycles
            NFock= 37  Conv=0.14D-08     -V/T= 2.0517
 <Sx>= 0.0000 <Sy>= 0.0000 <Sz>= 1.5000 <S**2>= 3.7868 S= 1.5092
 <L.S>=  0.00000000000    
 Annihilation of the first spin contaminant:
 S**2 before annihilation     3.7868,   after     3.7506

 **********************************************************************

            Population analysis using the SCF Density.

 **********************************************************************

 Orbital symmetries:
 Alpha Orbitals:
       Occupied  (A) (A) (A) (A) (A) (A) (A) (A) (A) (A) (A) (A)
                 (A) (A) (A) (A) (A) (A) (A) (A) (A) (A) (A) (A)
                 (A) (A) (A) (A) (A) (A) (A) (A) (A) (A) (A) (A)
                 (A) (A) (A) (A) (A) (A) (A) (A) (A) (A) (A) (A)
                 (A) (A) (A) (A) (A) (A) (A) (A) (A) (A) (A) (A)
                 (A) (A) (A) (A) (A) (A) (A) (A) (A) (A) (A) (A)
                 (A) (A) (A) (A) (A) (A) (A) (A) (A) (A) (A) (A)
                 (A) (A) (A) (A) (A) (A) (A) (A) (A) (A) (A) (A)
                 (A) (A) (A) (A) (A) (A) (A) (A) (A) (A) (A) (A)
                 (A) (A) (A) (A) (A) (A) (A) (A) (A) (A) (A) (A)
                 (A) (A) (A) (A) (A) (A) (A) (A) (A) (A) (A) (A)
                 (A) (A) (A) (A) (A) (A) (A) (A) (A) (A) (A) (A)
                 (A) (A) (A) (A) (A) (A) (A) (A) (A) (A) (A) (A)
                 (A) (A) (A) (A) (A) (A) (A) (A) (A) (A) (A) (A)
                 (A) (A) (A) (A) (A) (A) (A) (A) (A) (A) (A) (A)
                 (A) (A) (A) (A) (A) (A) (A) (A) (A) (A) (A) (A)
                 (A) (A) (A) (A) (A) (A) (A) (A)
       Virtual   (A) (A) (A) (A) (A) (A) (A) (A) (A) (A) (A) (A)
                 (A) (A) (A) (A) (A) (A) (A) (A) (A) (A) (A) (A)
                 (A) (A) (A) (A) (A) (A) (A) (A) (A) (A) (A) (A)
                 (A) (A) (A) (A) (A) (A) (A) (A) (A) (A) (A) (A)
                 (A) (A) (A) (A) (A) (A) (A) (A) (A) (A) (A) (A)
                 (A) (A) (A) (A) (A) (A) (A) (A) (A) (A) (A) (A)
                 (A) (A) (A) (A) (A) (A) (A) (A) (A) (A) (A) (A)
                 (A) (A) (A) (A) (A) (A) (A) (A) (A) (A) (A) (A)
                 (A) (A) (A) (A) (A) (A) (A) (A) (A) (A) (A) (A)
                 (A) (A) (A) (A) (A) (A) (A) (A) (A) (A) (A) (A)
                 (A) (A) (A) (A) (A) (A) (A) (A) (A) (A) (A) (A)
                 (A) (A) (A) (A) (A) (A) (A) (A) (A) (A) (A) (A)
                 (A) (A) (A) (A) (A) (A) (A) (A) (A) (A) (A) (A)
                 (A) (A) (A) (A) (A) (A) (A) (A) (A) (A) (A) (A)
                 (A) (A) (A) (A) (A) (A) (A) (A) (A) (A) (A) (A)
                 (A) (A) (A) (A) (A) (A) (A) (A) (A) (A) (A) (A)
                 (A) (A) (A) (A) (A) (A) (A) (A) (A) (A) (A) (A)
                 (A) (A) (A) (A) (A) (A) (A) (A) (A) (A) (A) (A)
                 (A) (A) (A) (A) (A) (A) (A) (A) (A) (A) (A) (A)
                 (A) (A) (A) (A) (A) (A) (A) (A) (A) (A) (A) (A)
                 (A) (A) (A) (A) (A) (A) (A) (A) (A) (A) (A) (A)
                 (A) (A) (A) (A) (A) (A) (A) (A) (A) (A) (A) (A)
                 (A) (A) (A) (A) (A) (A) (A) (A) (A) (A) (A) (A)
                 (A) (A) (A) (A) (A) (A) (A) (A) (A) (A) (A) (A)
                 (A) (A) (A) (A) (A) (A) (A) (A) (A) (A) (A) (A)
                 (A) (A) (A) (A) (A) (A) (A) (A) (A) (A) (A) (A)
                 (A) (A) (A) (A) (A) (A) (A) (A) (A) (A) (A) (A)
                 (A) (A) (A) (A) (A) (A) (A) (A) (A) (A) (A) (A)
                 (A) (A) (A) (A) (A) (A) (A) (A) (A) (A) (A) (A)
                 (A) (A) (A) (A) (A) (A) (A) (A) (A) (A) (A) (A)
                 (A) (A) (A) (A) (A) (A) (A) (A) (A) (A) (A) (A)
                 (A) (A) (A) (A) (A) (A) (A) (A) (A) (A) (A) (A)
                 (A) (A) (A) (A) (A) (A) (A) (A) (A) (A) (A) (A)
                 (A) (A) (A) (A) (A) (A) (A) (A) (A) (A) (A) (A)
                 (A) (A) (A) (A) (A) (A) (A) (A) (A) (A) (A) (A)
                 (A) (A) (A) (A) (A) (A) (A) (A) (A) (A) (A) (A)
                 (A) (A) (A) (A) (A) (A) (A) (A) (A) (A) (A) (A)
                 (A) (A) (A) (A) (A) (A) (A) (A) (A) (A) (A) (A)
                 (A) (A) (A) (A) (A) (A) (A) (A) (A) (A) (A) (A)
                 (A) (A) (A) (A) (A) (A) (A) (A) (A) (A) (A) (A)
                 (A) (A) (A) (A) (A) (A) (A) (A) (A) (A) (A) (A)
                 (A) (A) (A) (A) (A) (A) (A) (A) (A) (A) (A) (A)
                 (A) (A) (A) (A) (A) (A) (A) (A) (A) (A) (A) (A)
                 (A) (A) (A) (A) (A) (A) (A) (A) (A) (A) (A) (A)
                 (A) (A) (A) (A) (A) (A) (A) (A) (A) (A) (A) (A)
                 (A) (A) (A) (A) (A) (A) (A) (A) (A) (A) (A) (A)
                 (A) (A) (A) (A) (A) (A) (A) (A) (A) (A) (A) (A)
                 (A) (A) (A) (A) (A) (A) (A) (A) (A) (A) (A) (A)
                 (A) (A) (A) (A) (A) (A) (A) (A) (A) (A) (A) (A)
                 (A) (A) (A) (A) (A) (A) (A) (A) (A) (A) (A) (A)
                 (A) (A) (A) (A) (A) (A) (A) (A) (A) (A) (A) (A)
                 (A) (A) (A) (A) (A) (A) (A) (A) (A) (A) (A) (A)
                 (A) (A) (A) (A) (A) (A) (A) (A) (A) (A) (A) (A)
                 (A) (A) (A) (A) (A) (A) (A) (A) (A) (A) (A) (A)
                 (A) (A) (A) (A) (A) (A) (A) (A) (A) (A) (A) (A)
                 (A) (A) (A) (A) (A) (A) (A) (A) (A) (A) (A) (A)
                 (A) (A) (A) (A) (A) (A) (A) (A) (A) (A) (A) (A)
                 (A) (A) (A) (A) (A) (A) (A) (A) (A) (A) (A) (A)
                 (A) (A) (A) (A) (A) (A) (A) (A) (A) (A) (A) (A)
                 (A) (A) (A) (A) (A) (A) (A) (A) (A) (A) (A) (A)
                 (A) (A) (A) (A) (A) (A) (A) (A) (A) (A) (A) (A)
                 (A) (A) (A) (A) (A) (A) (A) (A) (A) (A) (A) (A)
                 (A) (A) (A) (A) (A) (A) (A) (A) (A) (A) (A) (A)
                 (A) (A) (A) (A) (A) (A) (A) (A) (A) (A) (A) (A)
                 (A) (A) (A) (A) (A) (A) (A) (A) (A) (A) (A) (A)
                 (A) (A) (A) (A) (A) (A) (A) (A) (A) (A) (A) (A)
                 (A) (A) (A) (A) (A) (A) (A) (A) (A) (A) (A) (A)
                 (A) (A) (A) (A) (A) (A) (A) (A) (A) (A) (A) (A)
                 (A) (A) (A) (A) (A) (A) (A) (A) (A) (A) (A) (A)
                 (A) (A) (A) (A) (A) (A) (A) (A) (A) (A) (A) (A)
                 (A) (A) (A) (A) (A) (A) (A) (A) (A) (A) (A) (A)
                 (A) (A) (A) (A) (A) (A) (A) (A) (A) (A) (A) (A)
                 (A) (A) (A) (A) (A) (A) (A) (A) (A) (A) (A) (A)
                 (A) (A) (A) (A) (A) (A) (A) (A) (A) (A) (A) (A)
                 (A) (A) (A) (A) (A) (A) (A) (A) (A) (A) (A) (A)
                 (A) (A) (A) (A) (A) (A) (A) (A) (A) (A) (A) (A)
                 (A) (A) (A) (A) (A) (A) (A) (A) (A) (A) (A) (A)
                 (A) (A) (A) (A) (A) (A) (A) (A) (A) (A) (A) (A)
                 (A) (A) (A) (A) (A) (A) (A) (A) (A) (A) (A) (A)
                 (A) (A) (A) (A) (A) (A) (A) (A) (A) (A) (A) (A)
                 (A) (A) (A) (A) (A) (A) (A) (A) (A) (A) (A) (A)
                 (A) (A) (A) (A) (A) (A) (A) (A) (A) (A) (A) (A)
                 (A) (A) (A) (A) (A) (A) (A) (A) (A) (A) (A) (A)
                 (A) (A) (A) (A) (A) (A) (A) (A) (A) (A) (A) (A)
                 (A) (A) (A) (A) (A) (A) (A) (A) (A) (A) (A) (A)
                 (A) (A) (A) (A) (A) (A) (A) (A) (A) (A) (A) (A)
                 (A) (A) (A) (A) (A) (A) (A) (A) (A) (A) (A) (A)
                 (A) (A) (A) (A) (A) (A) (A) (A) (A) (A) (A) (A)
                 (A) (A) (A) (A) (A) (A) (A) (A) (A) (A) (A) (A)
                 (A) (A) (A) (A) (A) (A) (A) (A) (A) (A) (A) (A)
                 (A) (A) (A) (A) (A) (A) (A) (A) (A) (A) (A) (A)
                 (A) (A) (A) (A) (A) (A) (A) (A) (A) (A) (A) (A)
                 (A) (A) (A) (A) (A) (A) (A) (A) (A) (A) (A) (A)
                 (A) (A) (A) (A) (A) (A) (A) (A) (A) (A) (A) (A)
                 (A) (A) (A) (A) (A) (A) (A) (A) (A) (A) (A) (A)
                 (A) (A) (A) (A) (A) (A) (A) (A) (A) (A) (A) (A)
                 (A) (A) (A) (A) (A) (A) (A) (A) (A) (A) (A) (A)
                 (A) (A) (A) (A) (A) (A) (A) (A) (A) (A) (A) (A)
                 (A) (A) (A) (A) (A) (A) (A) (A) (A) (A) (A) (A)
                 (A) (A) (A) (A) (A) (A) (A) (A) (A) (A) (A) (A)
                 (A) (A) (A) (A) (A) (A) (A) (A) (A) (A) (A) (A)
                 (A) (A) (A) (A) (A) (A) (A) (A) (A) (A) (A) (A)
                 (A) (A) (A) (A) (A) (A) (A) (A) (A) (A) (A) (A)
                 (A) (A) (A) (A) (A) (A) (A) (A) (A) (A) (A) (A)
                 (A) (A) (A) (A) (A) (A) (A) (A) (A) (A) (A) (A)
                 (A) (A) (A) (A) (A) (A) (A) (A) (A) (A) (A) (A)
                 (A) (A) (A) (A) (A) (A) (A) (A) (A) (A) (A) (A)
                 (A) (A) (A) (A) (A) (A) (A) (A) (A) (A) (A) (A)
                 (A) (A) (A) (A) (A) (A) (A) (A) (A) (A) (A) (A)
                 (A) (A) (A) (A) (A) (A) (A) (A) (A) (A) (A) (A)
                 (A) (A) (A) (A) (A) (A) (A) (A) (A) (A) (A) (A)
                 (A) (A) (A) (A) (A) (A) (A) (A) (A) (A) (A) (A)
                 (A) (A) (A) (A) (A) (A) (A) (A) (A) (A) (A) (A)
                 (A) (A) (A) (A) (A) (A) (A) (A) (A) (A) (A) (A)
                 (A) (A) (A) (A) (A) (A) (A) (A) (A) (A) (A) (A)
                 (A) (A) (A) (A) (A) (A) (A) (A) (A) (A) (A) (A)
                 (A) (A) (A) (A) (A) (A) (A) (A) (A) (A) (A) (A)
                 (A) (A) (A) (A) (A) (A) (A) (A) (A) (A) (A) (A)
                 (A) (A) (A) (A) (A) (A) (A) (A) (A) (A) (A) (A)
                 (A) (A) (A) (A) (A) (A) (A) (A) (A) (A) (A) (A)
                 (A) (A) (A) (A) (A) (A) (A) (A) (A) (A) (A) (A)
                 (A) (A) (A) (A) (A) (A) (A) (A) (A) (A) (A) (A)
                 (A) (A) (A) (A) (A) (A) (A) (A) (A) (A) (A) (A)
                 (A) (A) (A) (A) (A) (A) (A) (A) (A) (A) (A) (A)
                 (A) (A) (A) (A) (A) (A) (A) (A) (A) (A) (A) (A)
                 (A) (A) (A) (A) (A) (A) (A) (A) (A) (A) (A) (A)
                 (A) (A) (A) (A) (A) (A) (A) (A) (A) (A) (A) (A)
                 (A) (A) (A) (A) (A) (A) (A) (A) (A) (A) (A) (A)
                 (A) (A) (A) (A) (A) (A) (A) (A) (A) (A) (A) (A)
                 (A) (A) (A) (A) (A) (A) (A) (A) (A) (A) (A) (A)
                 (A) (A) (A) (A) (A) (A) (A) (A) (A) (A) (A) (A)
                 (A) (A) (A) (A) (A) (A) (A) (A) (A) (A) (A) (A)
                 (A) (A) (A) (A) (A) (A) (A) (A) (A) (A) (A) (A)
                 (A) (A) (A) (A) (A) (A) (A) (A) (A) (A) (A) (A)
                 (A) (A) (A) (A) (A) (A) (A) (A) (A) (A) (A) (A)
                 (A) (A) (A) (A) (A) (A) (A) (A) (A) (A) (A) (A)
                 (A) (A) (A) (A) (A) (A) (A) (A) (A) (A) (A) (A)
                 (A)
 Beta  Orbitals:
       Occupied  (A) (A) (A) (A) (A) (A) (A) (A) (A) (A) (A) (A)
                 (A) (A) (A) (A) (A) (A) (A) (A) (A) (A) (A) (A)
                 (A) (A) (A) (A) (A) (A) (A) (A) (A) (A) (A) (A)
                 (A) (A) (A) (A) (A) (A) (A) (A) (A) (A) (A) (A)
                 (A) (A) (A) (A) (A) (A) (A) (A) (A) (A) (A) (A)
                 (A) (A) (A) (A) (A) (A) (A) (A) (A) (A) (A) (A)
                 (A) (A) (A) (A) (A) (A) (A) (A) (A) (A) (A) (A)
                 (A) (A) (A) (A) (A) (A) (A) (A) (A) (A) (A) (A)
                 (A) (A) (A) (A) (A) (A) (A) (A) (A) (A) (A) (A)
                 (A) (A) (A) (A) (A) (A) (A) (A) (A) (A) (A) (A)
                 (A) (A) (A) (A) (A) (A) (A) (A) (A) (A) (A) (A)
                 (A) (A) (A) (A) (A) (A) (A) (A) (A) (A) (A) (A)
                 (A) (A) (A) (A) (A) (A) (A) (A) (A) (A) (A) (A)
                 (A) (A) (A) (A) (A) (A) (A) (A) (A) (A) (A) (A)
                 (A) (A) (A) (A) (A) (A) (A) (A) (A) (A) (A) (A)
                 (A) (A) (A) (A) (A) (A) (A) (A) (A) (A) (A) (A)
                 (A) (A) (A) (A) (A)
       Virtual   (A) (A) (A) (A) (A) (A) (A) (A) (A) (A) (A) (A)
                 (A) (A) (A) (A) (A) (A) (A) (A) (A) (A) (A) (A)
                 (A) (A) (A) (A) (A) (A) (A) (A) (A) (A) (A) (A)
                 (A) (A) (A) (A) (A) (A) (A) (A) (A) (A) (A) (A)
                 (A) (A) (A) (A) (A) (A) (A) (A) (A) (A) (A) (A)
                 (A) (A) (A) (A) (A) (A) (A) (A) (A) (A) (A) (A)
                 (A) (A) (A) (A) (A) (A) (A) (A) (A) (A) (A) (A)
                 (A) (A) (A) (A) (A) (A) (A) (A) (A) (A) (A) (A)
                 (A) (A) (A) (A) (A) (A) (A) (A) (A) (A) (A) (A)
                 (A) (A) (A) (A) (A) (A) (A) (A) (A) (A) (A) (A)
                 (A) (A) (A) (A) (A) (A) (A) (A) (A) (A) (A) (A)
                 (A) (A) (A) (A) (A) (A) (A) (A) (A) (A) (A) (A)
                 (A) (A) (A) (A) (A) (A) (A) (A) (A) (A) (A) (A)
                 (A) (A) (A) (A) (A) (A) (A) (A) (A) (A) (A) (A)
                 (A) (A) (A) (A) (A) (A) (A) (A) (A) (A) (A) (A)
                 (A) (A) (A) (A) (A) (A) (A) (A) (A) (A) (A) (A)
                 (A) (A) (A) (A) (A) (A) (A) (A) (A) (A) (A) (A)
                 (A) (A) (A) (A) (A) (A) (A) (A) (A) (A) (A) (A)
                 (A) (A) (A) (A) (A) (A) (A) (A) (A) (A) (A) (A)
                 (A) (A) (A) (A) (A) (A) (A) (A) (A) (A) (A) (A)
                 (A) (A) (A) (A) (A) (A) (A) (A) (A) (A) (A) (A)
                 (A) (A) (A) (A) (A) (A) (A) (A) (A) (A) (A) (A)
                 (A) (A) (A) (A) (A) (A) (A) (A) (A) (A) (A) (A)
                 (A) (A) (A) (A) (A) (A) (A) (A) (A) (A) (A) (A)
                 (A) (A) (A) (A) (A) (A) (A) (A) (A) (A) (A) (A)
                 (A) (A) (A) (A) (A) (A) (A) (A) (A) (A) (A) (A)
                 (A) (A) (A) (A) (A) (A) (A) (A) (A) (A) (A) (A)
                 (A) (A) (A) (A) (A) (A) (A) (A) (A) (A) (A) (A)
                 (A) (A) (A) (A) (A) (A) (A) (A) (A) (A) (A) (A)
                 (A) (A) (A) (A) (A) (A) (A) (A) (A) (A) (A) (A)
                 (A) (A) (A) (A) (A) (A) (A) (A) (A) (A) (A) (A)
                 (A) (A) (A) (A) (A) (A) (A) (A) (A) (A) (A) (A)
                 (A) (A) (A) (A) (A) (A) (A) (A) (A) (A) (A) (A)
                 (A) (A) (A) (A) (A) (A) (A) (A) (A) (A) (A) (A)
                 (A) (A) (A) (A) (A) (A) (A) (A) (A) (A) (A) (A)
                 (A) (A) (A) (A) (A) (A) (A) (A) (A) (A) (A) (A)
                 (A) (A) (A) (A) (A) (A) (A) (A) (A) (A) (A) (A)
                 (A) (A) (A) (A) (A) (A) (A) (A) (A) (A) (A) (A)
                 (A) (A) (A) (A) (A) (A) (A) (A) (A) (A) (A) (A)
                 (A) (A) (A) (A) (A) (A) (A) (A) (A) (A) (A) (A)
                 (A) (A) (A) (A) (A) (A) (A) (A) (A) (A) (A) (A)
                 (A) (A) (A) (A) (A) (A) (A) (A) (A) (A) (A) (A)
                 (A) (A) (A) (A) (A) (A) (A) (A) (A) (A) (A) (A)
                 (A) (A) (A) (A) (A) (A) (A) (A) (A) (A) (A) (A)
                 (A) (A) (A) (A) (A) (A) (A) (A) (A) (A) (A) (A)
                 (A) (A) (A) (A) (A) (A) (A) (A) (A) (A) (A) (A)
                 (A) (A) (A) (A) (A) (A) (A) (A) (A) (A) (A) (A)
                 (A) (A) (A) (A) (A) (A) (A) (A) (A) (A) (A) (A)
                 (A) (A) (A) (A) (A) (A) (A) (A) (A) (A) (A) (A)
                 (A) (A) (A) (A) (A) (A) (A) (A) (A) (A) (A) (A)
                 (A) (A) (A) (A) (A) (A) (A) (A) (A) (A) (A) (A)
                 (A) (A) (A) (A) (A) (A) (A) (A) (A) (A) (A) (A)
                 (A) (A) (A) (A) (A) (A) (A) (A) (A) (A) (A) (A)
                 (A) (A) (A) (A) (A) (A) (A) (A) (A) (A) (A) (A)
                 (A) (A) (A) (A) (A) (A) (A) (A) (A) (A) (A) (A)
                 (A) (A) (A) (A) (A) (A) (A) (A) (A) (A) (A) (A)
                 (A) (A) (A) (A) (A) (A) (A) (A) (A) (A) (A) (A)
                 (A) (A) (A) (A) (A) (A) (A) (A) (A) (A) (A) (A)
                 (A) (A) (A) (A) (A) (A) (A) (A) (A) (A) (A) (A)
                 (A) (A) (A) (A) (A) (A) (A) (A) (A) (A) (A) (A)
                 (A) (A) (A) (A) (A) (A) (A) (A) (A) (A) (A) (A)
                 (A) (A) (A) (A) (A) (A) (A) (A) (A) (A) (A) (A)
                 (A) (A) (A) (A) (A) (A) (A) (A) (A) (A) (A) (A)
                 (A) (A) (A) (A) (A) (A) (A) (A) (A) (A) (A) (A)
                 (A) (A) (A) (A) (A) (A) (A) (A) (A) (A) (A) (A)
                 (A) (A) (A) (A) (A) (A) (A) (A) (A) (A) (A) (A)
                 (A) (A) (A) (A) (A) (A) (A) (A) (A) (A) (A) (A)
                 (A) (A) (A) (A) (A) (A) (A) (A) (A) (A) (A) (A)
                 (A) (A) (A) (A) (A) (A) (A) (A) (A) (A) (A) (A)
                 (A) (A) (A) (A) (A) (A) (A) (A) (A) (A) (A) (A)
                 (A) (A) (A) (A) (A) (A) (A) (A) (A) (A) (A) (A)
                 (A) (A) (A) (A) (A) (A) (A) (A) (A) (A) (A) (A)
                 (A) (A) (A) (A) (A) (A) (A) (A) (A) (A) (A) (A)
                 (A) (A) (A) (A) (A) (A) (A) (A) (A) (A) (A) (A)
                 (A) (A) (A) (A) (A) (A) (A) (A) (A) (A) (A) (A)
                 (A) (A) (A) (A) (A) (A) (A) (A) (A) (A) (A) (A)
                 (A) (A) (A) (A) (A) (A) (A) (A) (A) (A) (A) (A)
                 (A) (A) (A) (A) (A) (A) (A) (A) (A) (A) (A) (A)
                 (A) (A) (A) (A) (A) (A) (A) (A) (A) (A) (A) (A)
                 (A) (A) (A) (A) (A) (A) (A) (A) (A) (A) (A) (A)
                 (A) (A) (A) (A) (A) (A) (A) (A) (A) (A) (A) (A)
                 (A) (A) (A) (A) (A) (A) (A) (A) (A) (A) (A) (A)
                 (A) (A) (A) (A) (A) (A) (A) (A) (A) (A) (A) (A)
                 (A) (A) (A) (A) (A) (A) (A) (A) (A) (A) (A) (A)
                 (A) (A) (A) (A) (A) (A) (A) (A) (A) (A) (A) (A)
                 (A) (A) (A) (A) (A) (A) (A) (A) (A) (A) (A) (A)
                 (A) (A) (A) (A) (A) (A) (A) (A) (A) (A) (A) (A)
                 (A) (A) (A) (A) (A) (A) (A) (A) (A) (A) (A) (A)
                 (A) (A) (A) (A) (A) (A) (A) (A) (A) (A) (A) (A)
                 (A) (A) (A) (A) (A) (A) (A) (A) (A) (A) (A) (A)
                 (A) (A) (A) (A) (A) (A) (A) (A) (A) (A) (A) (A)
                 (A) (A) (A) (A) (A) (A) (A) (A) (A) (A) (A) (A)
                 (A) (A) (A) (A) (A) (A) (A) (A) (A) (A) (A) (A)
                 (A) (A) (A) (A) (A) (A) (A) (A) (A) (A) (A) (A)
                 (A) (A) (A) (A) (A) (A) (A) (A) (A) (A) (A) (A)
                 (A) (A) (A) (A) (A) (A) (A) (A) (A) (A) (A) (A)
                 (A) (A) (A) (A) (A) (A) (A) (A) (A) (A) (A) (A)
                 (A) (A) (A) (A) (A) (A) (A) (A) (A) (A) (A) (A)
                 (A) (A) (A) (A) (A) (A) (A) (A) (A) (A) (A) (A)
                 (A) (A) (A) (A) (A) (A) (A) (A) (A) (A) (A) (A)
                 (A) (A) (A) (A) (A) (A) (A) (A) (A) (A) (A) (A)
                 (A) (A) (A) (A) (A) (A) (A) (A) (A) (A) (A) (A)
                 (A) (A) (A) (A) (A) (A) (A) (A) (A) (A) (A) (A)
                 (A) (A) (A) (A) (A) (A) (A) (A) (A) (A) (A) (A)
                 (A) (A) (A) (A) (A) (A) (A) (A) (A) (A) (A) (A)
                 (A) (A) (A) (A) (A) (A) (A) (A) (A) (A) (A) (A)
                 (A) (A) (A) (A) (A) (A) (A) (A) (A) (A) (A) (A)
                 (A) (A) (A) (A) (A) (A) (A) (A) (A) (A) (A) (A)
                 (A) (A) (A) (A) (A) (A) (A) (A) (A) (A) (A) (A)
                 (A) (A) (A) (A) (A) (A) (A) (A) (A) (A) (A) (A)
                 (A) (A) (A) (A) (A) (A) (A) (A) (A) (A) (A) (A)
                 (A) (A) (A) (A) (A) (A) (A) (A) (A) (A) (A) (A)
                 (A) (A) (A) (A) (A) (A) (A) (A) (A) (A) (A) (A)
                 (A) (A) (A) (A) (A) (A) (A) (A) (A) (A) (A) (A)
                 (A) (A) (A) (A) (A) (A) (A) (A) (A) (A) (A) (A)
                 (A) (A) (A) (A) (A) (A) (A) (A) (A) (A) (A) (A)
                 (A) (A) (A) (A) (A) (A) (A) (A) (A) (A) (A) (A)
                 (A) (A) (A) (A) (A) (A) (A) (A) (A) (A) (A) (A)
                 (A) (A) (A) (A) (A) (A) (A) (A) (A) (A) (A) (A)
                 (A) (A) (A) (A) (A) (A) (A) (A) (A) (A) (A) (A)
                 (A) (A) (A) (A) (A) (A) (A) (A) (A) (A) (A) (A)
                 (A) (A) (A) (A) (A) (A) (A) (A) (A) (A) (A) (A)
                 (A) (A) (A) (A) (A) (A) (A) (A) (A) (A) (A) (A)
                 (A) (A) (A) (A) (A) (A) (A) (A) (A) (A) (A) (A)
                 (A) (A) (A) (A) (A) (A) (A) (A) (A) (A) (A) (A)
                 (A) (A) (A) (A) (A) (A) (A) (A) (A) (A) (A) (A)
                 (A) (A) (A) (A) (A) (A) (A) (A) (A) (A) (A) (A)
                 (A) (A) (A) (A) (A) (A) (A) (A) (A) (A) (A) (A)
                 (A) (A) (A) (A) (A) (A) (A) (A) (A) (A) (A) (A)
                 (A) (A) (A) (A) (A) (A) (A) (A) (A) (A) (A) (A)
                 (A) (A) (A) (A) (A) (A) (A) (A) (A) (A) (A) (A)
                 (A) (A) (A) (A) (A) (A) (A) (A) (A) (A) (A) (A)
                 (A) (A) (A) (A) (A) (A) (A) (A) (A) (A) (A) (A)
                 (A) (A) (A) (A) (A) (A) (A) (A) (A) (A) (A) (A)
                 (A) (A) (A) (A) (A) (A) (A) (A) (A) (A) (A) (A)
                 (A) (A) (A) (A) (A) (A) (A) (A) (A) (A) (A) (A)
                 (A) (A) (A) (A) (A) (A) (A) (A) (A) (A) (A) (A)
                 (A) (A) (A) (A)
 The electronic state is 4-A.
 Alpha  occ. eigenvalues -- -101.11265 -19.02144 -19.01347 -19.00125 -14.19379
 Alpha  occ. eigenvalues --  -14.19366 -14.18152 -14.17206 -10.15416 -10.14761
 Alpha  occ. eigenvalues --  -10.13381 -10.12006 -10.11454 -10.11136 -10.10606
 Alpha  occ. eigenvalues --  -10.10480 -10.10425 -10.09640 -10.09404 -10.08589
 Alpha  occ. eigenvalues --  -10.07753 -10.07376 -10.07374 -10.07256 -10.07256
 Alpha  occ. eigenvalues --  -10.07046 -10.06998 -10.06993 -10.06649 -10.06074
 Alpha  occ. eigenvalues --  -10.06050 -10.05900 -10.05875 -10.05869 -10.05754
 Alpha  occ. eigenvalues --  -10.05646 -10.05274 -10.05260 -10.05207 -10.05069
 Alpha  occ. eigenvalues --  -10.05031 -10.04584 -10.04552 -10.04388 -10.04163
 Alpha  occ. eigenvalues --  -10.04071 -10.03952 -10.03899 -10.03573  -9.34226
 Alpha  occ. eigenvalues --   -7.04643  -7.04471  -7.04258  -4.06489  -4.00524
 Alpha  occ. eigenvalues --   -2.66042  -2.65576  -2.63042  -2.59935  -2.59139
 Alpha  occ. eigenvalues --   -2.58425  -1.07245  -1.06472  -1.03744  -0.94849
 Alpha  occ. eigenvalues --   -0.90089  -0.88031  -0.87010  -0.82135  -0.81019
 Alpha  occ. eigenvalues --   -0.79609  -0.78976  -0.78391  -0.78150  -0.75775
 Alpha  occ. eigenvalues --   -0.74989  -0.74846  -0.72858  -0.72481  -0.72046
 Alpha  occ. eigenvalues --   -0.71097  -0.70820  -0.70130  -0.69689  -0.67253
 Alpha  occ. eigenvalues --   -0.65454  -0.64816  -0.64667  -0.64593  -0.64231
 Alpha  occ. eigenvalues --   -0.64093  -0.62796  -0.61258  -0.60768  -0.60561
 Alpha  occ. eigenvalues --   -0.58607  -0.57248  -0.56895  -0.55894  -0.55879
 Alpha  occ. eigenvalues --   -0.55323  -0.54814  -0.51995  -0.50952  -0.50390
 Alpha  occ. eigenvalues --   -0.49820  -0.49660  -0.48950  -0.48506  -0.48199
 Alpha  occ. eigenvalues --   -0.47796  -0.46659  -0.46355  -0.45996  -0.45451
 Alpha  occ. eigenvalues --   -0.44513  -0.44220  -0.43392  -0.42691  -0.42682
 Alpha  occ. eigenvalues --   -0.42445  -0.42232  -0.41831  -0.41693  -0.41559
 Alpha  occ. eigenvalues --   -0.40882  -0.40627  -0.40573  -0.40291  -0.40149
 Alpha  occ. eigenvalues --   -0.40024  -0.39610  -0.39481  -0.39238  -0.38582
 Alpha  occ. eigenvalues --   -0.38492  -0.38267  -0.38022  -0.37472  -0.37150
 Alpha  occ. eigenvalues --   -0.36982  -0.36639  -0.36077  -0.35933  -0.35626
 Alpha  occ. eigenvalues --   -0.35220  -0.35102  -0.34765  -0.34688  -0.34575
 Alpha  occ. eigenvalues --   -0.34258  -0.34058  -0.33973  -0.33576  -0.33392
 Alpha  occ. eigenvalues --   -0.33140  -0.33080  -0.32993  -0.32784  -0.32493
 Alpha  occ. eigenvalues --   -0.32099  -0.31874  -0.31649  -0.31595  -0.31344
 Alpha  occ. eigenvalues --   -0.31064  -0.30888  -0.30475  -0.30328  -0.30071
 Alpha  occ. eigenvalues --   -0.29891  -0.29809  -0.29398  -0.29358  -0.29249
 Alpha  occ. eigenvalues --   -0.28768  -0.28537  -0.28063  -0.27844  -0.26174
 Alpha  occ. eigenvalues --   -0.25901  -0.25627  -0.25288  -0.24820  -0.24462
 Alpha  occ. eigenvalues --   -0.23718  -0.23594  -0.23351  -0.23144  -0.22824
 Alpha  occ. eigenvalues --   -0.22711  -0.22315  -0.21580  -0.20836  -0.20507
 Alpha  occ. eigenvalues --   -0.20268  -0.19556  -0.16970  -0.15911  -0.13451
 Alpha virt. eigenvalues --   -0.09588  -0.08586  -0.04930  -0.04395  -0.04222
 Alpha virt. eigenvalues --   -0.03918  -0.03381  -0.03341   0.00204   0.01088
 Alpha virt. eigenvalues --    0.01822   0.02076   0.02242   0.02438   0.02892
 Alpha virt. eigenvalues --    0.03537   0.03737   0.03992   0.05084   0.05283
 Alpha virt. eigenvalues --    0.05446   0.05738   0.06100   0.06392   0.06488
 Alpha virt. eigenvalues --    0.06735   0.07061   0.07120   0.07309   0.07641
 Alpha virt. eigenvalues --    0.07774   0.08044   0.08238   0.08371   0.08542
 Alpha virt. eigenvalues --    0.09045   0.09287   0.09470   0.09550   0.09943
 Alpha virt. eigenvalues --    0.10057   0.10262   0.10358   0.10516   0.10756
 Alpha virt. eigenvalues --    0.10934   0.11178   0.11361   0.11440   0.11557
 Alpha virt. eigenvalues --    0.11670   0.11936   0.12199   0.12228   0.12637
 Alpha virt. eigenvalues --    0.12977   0.13094   0.13275   0.13381   0.13657
 Alpha virt. eigenvalues --    0.13771   0.13976   0.14211   0.14333   0.14400
 Alpha virt. eigenvalues --    0.14579   0.14924   0.15094   0.15137   0.15279
 Alpha virt. eigenvalues --    0.15431   0.15655   0.15717   0.15948   0.16305
 Alpha virt. eigenvalues --    0.16455   0.16833   0.16990   0.17164   0.17506
 Alpha virt. eigenvalues --    0.17602   0.17760   0.17849   0.18116   0.18453
 Alpha virt. eigenvalues --    0.18680   0.18904   0.19111   0.19352   0.19826
 Alpha virt. eigenvalues --    0.20088   0.20318   0.20382   0.20775   0.20925
 Alpha virt. eigenvalues --    0.21031   0.21384   0.21718   0.21867   0.22144
 Alpha virt. eigenvalues --    0.22358   0.22513   0.22790   0.22835   0.23031
 Alpha virt. eigenvalues --    0.23119   0.23387   0.23418   0.23519   0.23814
 Alpha virt. eigenvalues --    0.23969   0.24293   0.24337   0.24583   0.24735
 Alpha virt. eigenvalues --    0.24959   0.25259   0.25425   0.25789   0.25872
 Alpha virt. eigenvalues --    0.25976   0.26167   0.26350   0.26505   0.26644
 Alpha virt. eigenvalues --    0.26861   0.27012   0.27320   0.27672   0.27714
 Alpha virt. eigenvalues --    0.27874   0.28022   0.28350   0.28498   0.28610
 Alpha virt. eigenvalues --    0.28812   0.29018   0.29294   0.29654   0.29695
 Alpha virt. eigenvalues --    0.29874   0.30192   0.30214   0.30621   0.30660
 Alpha virt. eigenvalues --    0.30891   0.31082   0.31165   0.31399   0.31822
 Alpha virt. eigenvalues --    0.31998   0.32191   0.32354   0.32646   0.33039
 Alpha virt. eigenvalues --    0.33168   0.33251   0.33475   0.33589   0.33718
 Alpha virt. eigenvalues --    0.33862   0.34053   0.34291   0.34422   0.34633
 Alpha virt. eigenvalues --    0.34857   0.35004   0.35191   0.35325   0.35516
 Alpha virt. eigenvalues --    0.35701   0.35787   0.35944   0.36217   0.36272
 Alpha virt. eigenvalues --    0.36308   0.36690   0.36744   0.36967   0.37174
 Alpha virt. eigenvalues --    0.37410   0.37566   0.37797   0.37879   0.38018
 Alpha virt. eigenvalues --    0.38150   0.38433   0.38654   0.38831   0.38929
 Alpha virt. eigenvalues --    0.39132   0.39311   0.39487   0.39590   0.39942
 Alpha virt. eigenvalues --    0.40144   0.40289   0.40354   0.40450   0.40582
 Alpha virt. eigenvalues --    0.40899   0.40984   0.41124   0.41306   0.41552
 Alpha virt. eigenvalues --    0.41814   0.41939   0.42021   0.42138   0.42251
 Alpha virt. eigenvalues --    0.42459   0.42705   0.42870   0.42936   0.43057
 Alpha virt. eigenvalues --    0.43253   0.43489   0.43625   0.43767   0.44072
 Alpha virt. eigenvalues --    0.44225   0.44318   0.44435   0.44564   0.44664
 Alpha virt. eigenvalues --    0.44803   0.44901   0.45036   0.45199   0.45236
 Alpha virt. eigenvalues --    0.45338   0.45619   0.45726   0.45944   0.46077
 Alpha virt. eigenvalues --    0.46163   0.46402   0.46593   0.46723   0.46910
 Alpha virt. eigenvalues --    0.46954   0.47354   0.47451   0.47529   0.47694
 Alpha virt. eigenvalues --    0.47916   0.48068   0.48252   0.48502   0.48718
 Alpha virt. eigenvalues --    0.48940   0.49049   0.49267   0.49401   0.49783
 Alpha virt. eigenvalues --    0.50196   0.50319   0.50547   0.50719   0.50951
 Alpha virt. eigenvalues --    0.51063   0.51471   0.51623   0.51752   0.52340
 Alpha virt. eigenvalues --    0.52454   0.52954   0.53115   0.53454   0.53661
 Alpha virt. eigenvalues --    0.53730   0.53899   0.54573   0.54850   0.55011
 Alpha virt. eigenvalues --    0.55401   0.55486   0.56107   0.56357   0.56470
 Alpha virt. eigenvalues --    0.56628   0.56962   0.57443   0.57763   0.57972
 Alpha virt. eigenvalues --    0.58088   0.58429   0.58683   0.59027   0.59303
 Alpha virt. eigenvalues --    0.59719   0.60052   0.60074   0.60273   0.60835
 Alpha virt. eigenvalues --    0.61059   0.61493   0.61604   0.61899   0.62159
 Alpha virt. eigenvalues --    0.62301   0.62682   0.63022   0.63178   0.63524
 Alpha virt. eigenvalues --    0.63975   0.64277   0.64618   0.64664   0.64976
 Alpha virt. eigenvalues --    0.65268   0.65357   0.65631   0.65844   0.66118
 Alpha virt. eigenvalues --    0.66229   0.66447   0.66659   0.66775   0.67269
 Alpha virt. eigenvalues --    0.67417   0.67745   0.67987   0.68143   0.68457
 Alpha virt. eigenvalues --    0.68819   0.69020   0.69128   0.69513   0.69626
 Alpha virt. eigenvalues --    0.69771   0.70191   0.70518   0.70598   0.71032
 Alpha virt. eigenvalues --    0.71270   0.71381   0.71797   0.71939   0.72291
 Alpha virt. eigenvalues --    0.72768   0.73058   0.73102   0.73524   0.73670
 Alpha virt. eigenvalues --    0.73892   0.74269   0.74371   0.74485   0.74650
 Alpha virt. eigenvalues --    0.75076   0.75244   0.75574   0.76051   0.76495
 Alpha virt. eigenvalues --    0.76640   0.76797   0.76986   0.77317   0.77586
 Alpha virt. eigenvalues --    0.77777   0.78073   0.78236   0.78473   0.78789
 Alpha virt. eigenvalues --    0.78931   0.79211   0.79809   0.79943   0.80342
 Alpha virt. eigenvalues --    0.80415   0.80789   0.80935   0.81409   0.81729
 Alpha virt. eigenvalues --    0.81921   0.82366   0.82476   0.82802   0.82836
 Alpha virt. eigenvalues --    0.83064   0.83308   0.83832   0.84264   0.84465
 Alpha virt. eigenvalues --    0.84699   0.84855   0.85094   0.85694   0.85900
 Alpha virt. eigenvalues --    0.86078   0.86428   0.86714   0.86936   0.87192
 Alpha virt. eigenvalues --    0.87473   0.87780   0.87911   0.88185   0.88454
 Alpha virt. eigenvalues --    0.88803   0.89030   0.89154   0.89489   0.89717
 Alpha virt. eigenvalues --    0.90388   0.90651   0.90800   0.91200   0.91499
 Alpha virt. eigenvalues --    0.91954   0.92164   0.92601   0.92885   0.93068
 Alpha virt. eigenvalues --    0.93871   0.94664   0.94681   0.95136   0.95557
 Alpha virt. eigenvalues --    0.95947   0.96234   0.96598   0.97051   0.97645
 Alpha virt. eigenvalues --    0.97744   0.98064   0.98424   0.98558   0.98992
 Alpha virt. eigenvalues --    0.99425   0.99740   1.00202   1.00630   1.01103
 Alpha virt. eigenvalues --    1.01453   1.01585   1.01754   1.02463   1.02712
 Alpha virt. eigenvalues --    1.03150   1.03900   1.04118   1.04386   1.04717
 Alpha virt. eigenvalues --    1.04991   1.05495   1.05691   1.05886   1.06137
 Alpha virt. eigenvalues --    1.06433   1.06644   1.07174   1.07481   1.07766
 Alpha virt. eigenvalues --    1.08118   1.08217   1.08442   1.09122   1.09443
 Alpha virt. eigenvalues --    1.09687   1.09871   1.10215   1.10628   1.10935
 Alpha virt. eigenvalues --    1.11237   1.11539   1.11655   1.11995   1.12390
 Alpha virt. eigenvalues --    1.12830   1.12937   1.13214   1.13836   1.14096
 Alpha virt. eigenvalues --    1.14310   1.14901   1.15230   1.15442   1.15669
 Alpha virt. eigenvalues --    1.16091   1.16144   1.16499   1.16797   1.17405
 Alpha virt. eigenvalues --    1.17440   1.17785   1.18385   1.18551   1.18852
 Alpha virt. eigenvalues --    1.19205   1.19812   1.19993   1.20241   1.20650
 Alpha virt. eigenvalues --    1.21040   1.21212   1.21936   1.22100   1.22500
 Alpha virt. eigenvalues --    1.22598   1.23009   1.23376   1.23610   1.23717
 Alpha virt. eigenvalues --    1.23935   1.24332   1.24491   1.24667   1.25146
 Alpha virt. eigenvalues --    1.25327   1.25576   1.25866   1.25941   1.26276
 Alpha virt. eigenvalues --    1.26538   1.26937   1.27060   1.27434   1.27930
 Alpha virt. eigenvalues --    1.28389   1.28704   1.29046   1.29388   1.29416
 Alpha virt. eigenvalues --    1.30044   1.30051   1.30700   1.31354   1.31549
 Alpha virt. eigenvalues --    1.32084   1.32443   1.32641   1.33036   1.33198
 Alpha virt. eigenvalues --    1.33864   1.34135   1.34806   1.35427   1.35777
 Alpha virt. eigenvalues --    1.36062   1.36695   1.36830   1.37280   1.37959
 Alpha virt. eigenvalues --    1.38356   1.38761   1.39074   1.39421   1.39852
 Alpha virt. eigenvalues --    1.40134   1.40526   1.41064   1.41630   1.41741
 Alpha virt. eigenvalues --    1.41834   1.42143   1.43010   1.43254   1.43681
 Alpha virt. eigenvalues --    1.44226   1.44768   1.44901   1.45318   1.45730
 Alpha virt. eigenvalues --    1.46089   1.46813   1.47017   1.47124   1.47709
 Alpha virt. eigenvalues --    1.48098   1.48260   1.48380   1.48734   1.48934
 Alpha virt. eigenvalues --    1.49112   1.49511   1.49717   1.49999   1.50560
 Alpha virt. eigenvalues --    1.50673   1.51132   1.51455   1.51712   1.52064
 Alpha virt. eigenvalues --    1.52687   1.52981   1.53201   1.53355   1.53520
 Alpha virt. eigenvalues --    1.53965   1.54455   1.54603   1.54991   1.55168
 Alpha virt. eigenvalues --    1.55605   1.55949   1.56152   1.56730   1.57115
 Alpha virt. eigenvalues --    1.57204   1.57484   1.57612   1.57738   1.58156
 Alpha virt. eigenvalues --    1.58379   1.58844   1.58989   1.59106   1.59437
 Alpha virt. eigenvalues --    1.59655   1.59927   1.60137   1.60463   1.60543
 Alpha virt. eigenvalues --    1.60827   1.61198   1.61258   1.61545   1.62108
 Alpha virt. eigenvalues --    1.62127   1.62467   1.62570   1.62794   1.63314
 Alpha virt. eigenvalues --    1.63560   1.63726   1.63836   1.64146   1.64443
 Alpha virt. eigenvalues --    1.64995   1.65216   1.65685   1.66553   1.66651
 Alpha virt. eigenvalues --    1.67057   1.67419   1.67502   1.68115   1.68208
 Alpha virt. eigenvalues --    1.68623   1.68778   1.68965   1.69259   1.69433
 Alpha virt. eigenvalues --    1.69616   1.69875   1.70182   1.70439   1.70914
 Alpha virt. eigenvalues --    1.70974   1.71481   1.71619   1.71776   1.72241
 Alpha virt. eigenvalues --    1.72440   1.72703   1.73110   1.73786   1.73854
 Alpha virt. eigenvalues --    1.74611   1.74674   1.74971   1.75802   1.76044
 Alpha virt. eigenvalues --    1.76371   1.76441   1.77266   1.77619   1.78123
 Alpha virt. eigenvalues --    1.78451   1.78813   1.79071   1.80061   1.80487
 Alpha virt. eigenvalues --    1.80590   1.81050   1.81621   1.81979   1.82200
 Alpha virt. eigenvalues --    1.82540   1.82821   1.83887   1.84414   1.84901
 Alpha virt. eigenvalues --    1.84943   1.85900   1.86066   1.86399   1.86700
 Alpha virt. eigenvalues --    1.87122   1.87333   1.87624   1.87929   1.88398
 Alpha virt. eigenvalues --    1.88711   1.89271   1.89393   1.89661   1.90370
 Alpha virt. eigenvalues --    1.90503   1.91082   1.91413   1.91572   1.91804
 Alpha virt. eigenvalues --    1.91948   1.92393   1.92947   1.93055   1.93430
 Alpha virt. eigenvalues --    1.94027   1.94211   1.94605   1.94681   1.94793
 Alpha virt. eigenvalues --    1.95266   1.95743   1.96416   1.96621   1.96957
 Alpha virt. eigenvalues --    1.97048   1.97609   1.98141   1.98311   1.98717
 Alpha virt. eigenvalues --    1.99153   1.99553   1.99625   2.00072   2.00281
 Alpha virt. eigenvalues --    2.00770   2.01095   2.01489   2.02000   2.02624
 Alpha virt. eigenvalues --    2.02736   2.03275   2.03320   2.04146   2.04352
 Alpha virt. eigenvalues --    2.04626   2.04826   2.05024   2.05566   2.06254
 Alpha virt. eigenvalues --    2.06495   2.06582   2.06781   2.07606   2.07861
 Alpha virt. eigenvalues --    2.08394   2.08485   2.09222   2.09694   2.09811
 Alpha virt. eigenvalues --    2.10148   2.10407   2.11036   2.11304   2.11809
 Alpha virt. eigenvalues --    2.12393   2.12423   2.12682   2.12899   2.12984
 Alpha virt. eigenvalues --    2.13393   2.13944   2.14623   2.14904   2.15316
 Alpha virt. eigenvalues --    2.15443   2.15916   2.16319   2.16463   2.16882
 Alpha virt. eigenvalues --    2.17500   2.17622   2.17697   2.18097   2.18831
 Alpha virt. eigenvalues --    2.19121   2.19534   2.20295   2.20335   2.20688
 Alpha virt. eigenvalues --    2.21187   2.21410   2.21538   2.21756   2.21951
 Alpha virt. eigenvalues --    2.22156   2.22390   2.23425   2.23810   2.24070
 Alpha virt. eigenvalues --    2.24178   2.24205   2.25023   2.25452   2.25470
 Alpha virt. eigenvalues --    2.25999   2.26528   2.26837   2.27018   2.27614
 Alpha virt. eigenvalues --    2.27768   2.27887   2.28404   2.28645   2.29072
 Alpha virt. eigenvalues --    2.29587   2.29863   2.30324   2.30460   2.31213
 Alpha virt. eigenvalues --    2.31382   2.31968   2.32328   2.32503   2.33091
 Alpha virt. eigenvalues --    2.33297   2.33385   2.33738   2.34015   2.34567
 Alpha virt. eigenvalues --    2.34892   2.35258   2.35460   2.36046   2.36463
 Alpha virt. eigenvalues --    2.36628   2.37064   2.37349   2.37569   2.38287
 Alpha virt. eigenvalues --    2.38388   2.38562   2.39264   2.39459   2.40277
 Alpha virt. eigenvalues --    2.40583   2.40666   2.40889   2.41279   2.41533
 Alpha virt. eigenvalues --    2.41662   2.42029   2.42381   2.42734   2.43250
 Alpha virt. eigenvalues --    2.43575   2.44107   2.44269   2.44834   2.45350
 Alpha virt. eigenvalues --    2.46155   2.46565   2.46693   2.47602   2.47641
 Alpha virt. eigenvalues --    2.47968   2.48220   2.48601   2.49180   2.49797
 Alpha virt. eigenvalues --    2.49933   2.50453   2.50994   2.51413   2.51661
 Alpha virt. eigenvalues --    2.52262   2.53008   2.53250   2.53628   2.53816
 Alpha virt. eigenvalues --    2.53918   2.54264   2.54315   2.54867   2.55559
 Alpha virt. eigenvalues --    2.56108   2.56343   2.56659   2.57171   2.57327
 Alpha virt. eigenvalues --    2.57554   2.57853   2.58248   2.58616   2.58888
 Alpha virt. eigenvalues --    2.59231   2.59440   2.59592   2.60090   2.60340
 Alpha virt. eigenvalues --    2.60623   2.60782   2.60946   2.61406   2.61512
 Alpha virt. eigenvalues --    2.61799   2.62059   2.62225   2.62330   2.62608
 Alpha virt. eigenvalues --    2.62925   2.63358   2.63463   2.63837   2.64081
 Alpha virt. eigenvalues --    2.64498   2.64585   2.65020   2.65345   2.65471
 Alpha virt. eigenvalues --    2.65833   2.66157   2.66689   2.67077   2.67320
 Alpha virt. eigenvalues --    2.67627   2.68031   2.68345   2.68515   2.68846
 Alpha virt. eigenvalues --    2.69549   2.69823   2.70061   2.70313   2.70465
 Alpha virt. eigenvalues --    2.70725   2.70880   2.71158   2.71622   2.71693
 Alpha virt. eigenvalues --    2.72068   2.72308   2.72534   2.72932   2.73419
 Alpha virt. eigenvalues --    2.73756   2.73989   2.74241   2.74926   2.74962
 Alpha virt. eigenvalues --    2.75358   2.75659   2.75914   2.76070   2.76301
 Alpha virt. eigenvalues --    2.76616   2.77124   2.77449   2.77533   2.77671
 Alpha virt. eigenvalues --    2.78065   2.78837   2.79191   2.79404   2.79711
 Alpha virt. eigenvalues --    2.79930   2.80071   2.80378   2.80582   2.80891
 Alpha virt. eigenvalues --    2.81044   2.81895   2.82139   2.82345   2.82663
 Alpha virt. eigenvalues --    2.83289   2.83487   2.83859   2.84452   2.84520
 Alpha virt. eigenvalues --    2.84914   2.85116   2.85390   2.85631   2.86064
 Alpha virt. eigenvalues --    2.86180   2.86453   2.86753   2.87008   2.87391
 Alpha virt. eigenvalues --    2.87883   2.87896   2.88539   2.88712   2.88876
 Alpha virt. eigenvalues --    2.88966   2.89610   2.89713   2.89856   2.90280
 Alpha virt. eigenvalues --    2.90399   2.90494   2.90776   2.91125   2.91441
 Alpha virt. eigenvalues --    2.91719   2.92126   2.92414   2.92486   2.92753
 Alpha virt. eigenvalues --    2.92903   2.93655   2.93704   2.94202   2.94325
 Alpha virt. eigenvalues --    2.94763   2.95215   2.95598   2.96122   2.96688
 Alpha virt. eigenvalues --    2.97025   2.97620   2.97893   2.98478   2.98599
 Alpha virt. eigenvalues --    2.98728   2.99120   2.99648   2.99738   3.00052
 Alpha virt. eigenvalues --    3.00661   3.01729   3.01809   3.01985   3.02082
 Alpha virt. eigenvalues --    3.02988   3.03060   3.03280   3.03629   3.03734
 Alpha virt. eigenvalues --    3.04399   3.04813   3.04960   3.05102   3.05553
 Alpha virt. eigenvalues --    3.06072   3.06500   3.06658   3.06966   3.07286
 Alpha virt. eigenvalues --    3.08125   3.08321   3.08468   3.08864   3.09882
 Alpha virt. eigenvalues --    3.10075   3.10274   3.10427   3.10750   3.11108
 Alpha virt. eigenvalues --    3.11403   3.11844   3.11927   3.12304   3.12472
 Alpha virt. eigenvalues --    3.13113   3.13703   3.14044   3.14188   3.14613
 Alpha virt. eigenvalues --    3.14671   3.15037   3.15344   3.16031   3.16207
 Alpha virt. eigenvalues --    3.16699   3.17014   3.17138   3.17487   3.17498
 Alpha virt. eigenvalues --    3.17747   3.17921   3.18501   3.18983   3.19252
 Alpha virt. eigenvalues --    3.19551   3.19714   3.20183   3.20505   3.21156
 Alpha virt. eigenvalues --    3.21328   3.21738   3.21923   3.22160   3.22256
 Alpha virt. eigenvalues --    3.22470   3.22835   3.23094   3.23237   3.23606
 Alpha virt. eigenvalues --    3.23808   3.23959   3.24440   3.24524   3.24768
 Alpha virt. eigenvalues --    3.25046   3.25585   3.26069   3.26195   3.26367
 Alpha virt. eigenvalues --    3.26649   3.27035   3.27239   3.27344   3.27780
 Alpha virt. eigenvalues --    3.28171   3.28392   3.28547   3.28775   3.29142
 Alpha virt. eigenvalues --    3.29280   3.29533   3.29785   3.30183   3.30392
 Alpha virt. eigenvalues --    3.30569   3.30875   3.31036   3.31566   3.31824
 Alpha virt. eigenvalues --    3.31868   3.32381   3.32529   3.32934   3.33316
 Alpha virt. eigenvalues --    3.33375   3.33525   3.33825   3.34207   3.34371
 Alpha virt. eigenvalues --    3.35052   3.35122   3.35300   3.35656   3.35710
 Alpha virt. eigenvalues --    3.36131   3.36321   3.36755   3.36767   3.37249
 Alpha virt. eigenvalues --    3.37684   3.38096   3.38189   3.38569   3.38787
 Alpha virt. eigenvalues --    3.38917   3.39043   3.39258   3.39412   3.39793
 Alpha virt. eigenvalues --    3.39974   3.40275   3.40545   3.40914   3.41102
 Alpha virt. eigenvalues --    3.41172   3.41454   3.41754   3.42016   3.42428
 Alpha virt. eigenvalues --    3.42665   3.42782   3.43179   3.43538   3.43939
 Alpha virt. eigenvalues --    3.44026   3.44115   3.44372   3.44717   3.44790
 Alpha virt. eigenvalues --    3.45078   3.45348   3.45725   3.46038   3.46312
 Alpha virt. eigenvalues --    3.46855   3.47027   3.47207   3.47635   3.47795
 Alpha virt. eigenvalues --    3.47878   3.48016   3.48383   3.48754   3.48804
 Alpha virt. eigenvalues --    3.49213   3.49452   3.49813   3.50005   3.50520
 Alpha virt. eigenvalues --    3.50747   3.51187   3.51283   3.51567   3.52423
 Alpha virt. eigenvalues --    3.52503   3.53051   3.53285   3.53660   3.53910
 Alpha virt. eigenvalues --    3.54228   3.54530   3.54823   3.55005   3.55356
 Alpha virt. eigenvalues --    3.55928   3.56112   3.56338   3.56825   3.57106
 Alpha virt. eigenvalues --    3.57342   3.57727   3.57868   3.58215   3.58541
 Alpha virt. eigenvalues --    3.58739   3.58797   3.59311   3.59527   3.60110
 Alpha virt. eigenvalues --    3.60381   3.60459   3.61185   3.61453   3.62168
 Alpha virt. eigenvalues --    3.62411   3.62775   3.63223   3.63859   3.64180
 Alpha virt. eigenvalues --    3.65069   3.65391   3.65723   3.66165   3.66428
 Alpha virt. eigenvalues --    3.66900   3.67239   3.67597   3.67996   3.68302
 Alpha virt. eigenvalues --    3.68899   3.69783   3.69846   3.70475   3.71205
 Alpha virt. eigenvalues --    3.71422   3.71658   3.71888   3.72184   3.72462
 Alpha virt. eigenvalues --    3.73175   3.73526   3.73803   3.74456   3.75330
 Alpha virt. eigenvalues --    3.75850   3.76346   3.76869   3.77251   3.77447
 Alpha virt. eigenvalues --    3.77981   3.78310   3.78423   3.78678   3.79430
 Alpha virt. eigenvalues --    3.79765   3.80053   3.80629   3.81138   3.81827
 Alpha virt. eigenvalues --    3.82086   3.82377   3.82797   3.83129   3.83797
 Alpha virt. eigenvalues --    3.84301   3.84589   3.85342   3.85494   3.86235
 Alpha virt. eigenvalues --    3.86624   3.86975   3.87708   3.87965   3.89092
 Alpha virt. eigenvalues --    3.89693   3.90105   3.90457   3.91256   3.91571
 Alpha virt. eigenvalues --    3.92857   3.93791   3.94457   3.94608   3.94969
 Alpha virt. eigenvalues --    3.95515   3.95901   3.96182   3.96501   3.97518
 Alpha virt. eigenvalues --    3.97783   3.98073   3.98791   3.99513   4.00049
 Alpha virt. eigenvalues --    4.00289   4.01182   4.01540   4.01597   4.02488
 Alpha virt. eigenvalues --    4.02821   4.03421   4.03898   4.04118   4.04470
 Alpha virt. eigenvalues --    4.04652   4.05676   4.06308   4.06758   4.07325
 Alpha virt. eigenvalues --    4.08004   4.08432   4.08828   4.08960   4.09910
 Alpha virt. eigenvalues --    4.11288   4.11501   4.12145   4.12619   4.12946
 Alpha virt. eigenvalues --    4.13747   4.14008   4.14349   4.14493   4.14929
 Alpha virt. eigenvalues --    4.15403   4.15665   4.16019   4.16485   4.16607
 Alpha virt. eigenvalues --    4.16804   4.17391   4.17864   4.18083   4.18360
 Alpha virt. eigenvalues --    4.18474   4.19470   4.20123   4.20620   4.20824
 Alpha virt. eigenvalues --    4.21007   4.21604   4.22039   4.22877   4.23040
 Alpha virt. eigenvalues --    4.23482   4.23904   4.24208   4.24612   4.25160
 Alpha virt. eigenvalues --    4.25342   4.25687   4.26242   4.26512   4.26897
 Alpha virt. eigenvalues --    4.27270   4.27460   4.27772   4.28215   4.28915
 Alpha virt. eigenvalues --    4.29130   4.29712   4.30624   4.30793   4.31649
 Alpha virt. eigenvalues --    4.32258   4.32862   4.33034   4.33328   4.33938
 Alpha virt. eigenvalues --    4.34570   4.34866   4.35093   4.35922   4.36244
 Alpha virt. eigenvalues --    4.36414   4.37219   4.37909   4.38233   4.38454
 Alpha virt. eigenvalues --    4.38887   4.39728   4.40444   4.41323   4.41780
 Alpha virt. eigenvalues --    4.42018   4.42724   4.42973   4.43927   4.44482
 Alpha virt. eigenvalues --    4.44624   4.45026   4.45199   4.46545   4.46687
 Alpha virt. eigenvalues --    4.47317   4.48299   4.48898   4.49469   4.49858
 Alpha virt. eigenvalues --    4.50129   4.50754   4.51535   4.51945   4.52255
 Alpha virt. eigenvalues --    4.52690   4.53515   4.54143   4.54331   4.55676
 Alpha virt. eigenvalues --    4.56496   4.56650   4.57610   4.58587   4.59625
 Alpha virt. eigenvalues --    4.60598   4.61293   4.62933   4.63864   4.64590
 Alpha virt. eigenvalues --    4.65003   4.65920   4.66819   4.68140   4.68595
 Alpha virt. eigenvalues --    4.69031   4.70430   4.73818   4.74667   4.75298
 Alpha virt. eigenvalues --    4.75333   4.76069   4.77174   4.77607   4.77726
 Alpha virt. eigenvalues --    4.78102   4.78382   4.78730   4.78991   4.79326
 Alpha virt. eigenvalues --    4.81579   4.82426   4.83309   4.84469   4.85727
 Alpha virt. eigenvalues --    4.86323   4.86964   4.87732   4.88439   4.88780
 Alpha virt. eigenvalues --    4.89414   4.90210   4.93029   4.94456   4.95382
 Alpha virt. eigenvalues --    4.96700   4.97897   4.98676   4.98716   4.99040
 Alpha virt. eigenvalues --    5.01404   5.01752   5.04199   5.04498   5.05115
 Alpha virt. eigenvalues --    5.07349   5.07808   5.08211   5.08933   5.09797
 Alpha virt. eigenvalues --    5.10618   5.10827   5.11312   5.12047   5.13692
 Alpha virt. eigenvalues --    5.14886   5.15332   5.16231   5.16924   5.17826
 Alpha virt. eigenvalues --    5.18234   5.18746   5.19521   5.21269   5.21827
 Alpha virt. eigenvalues --    5.23333   5.23625   5.24297   5.25770   5.26714
[...]
    35 H(1)   Bbb    -0.0014    -0.745    -0.266    -0.249  0.2957  0.2137  0.9311
              Bcc     0.0032     1.729     0.617     0.577 -0.6830  0.7288  0.0497
 
              Baa    -0.0019    -1.014    -0.362    -0.338  0.3709  0.9270 -0.0566
    36 H(1)   Bbb    -0.0014    -0.746    -0.266    -0.249  0.0835  0.0274  0.9961
              Bcc     0.0033     1.761     0.628     0.587  0.9249 -0.3741 -0.0672
 
              Baa    -0.0055    -0.733    -0.262    -0.245  0.4180 -0.0909  0.9039
    37 C(13)  Bbb    -0.0050    -0.672    -0.240    -0.224  0.5651  0.8051 -0.1803
              Bcc     0.0105     1.406     0.502     0.469  0.7113 -0.5862 -0.3879
 
              Baa    -0.0037    -1.971    -0.703    -0.657  0.3939  0.6540 -0.6458
    38 H(1)   Bbb    -0.0026    -1.378    -0.492    -0.460  0.7655  0.1554  0.6243
              Bcc     0.0063     3.349     1.195     1.117 -0.5087  0.7403  0.4395
 
              Baa    -0.0089    -1.196    -0.427    -0.399  0.1334  0.9258  0.3537
    39 C(13)  Bbb    -0.0081    -1.090    -0.389    -0.363 -0.0126 -0.3553  0.9347
              Bcc     0.0170     2.285     0.815     0.762  0.9910 -0.1292 -0.0357
 
              Baa    -0.0068    -3.650    -1.303    -1.218  0.3701  0.9267  0.0647
    40 H(1)   Bbb    -0.0053    -2.845    -1.015    -0.949 -0.2689  0.0402  0.9623
              Bcc     0.0122     6.496     2.318     2.167  0.8892 -0.3736  0.2641
 
              Baa    -0.0163     1.176     0.420     0.392 -0.3995  0.5475  0.7353
    41 O(17)  Bbb    -0.0062     0.452     0.161     0.151  0.3947 -0.6212  0.6770
              Bcc     0.0225    -1.628    -0.581    -0.543  0.8274  0.5607  0.0320
 
              Baa    -0.0374     2.703     0.965     0.902  0.7750 -0.2535  0.5789
    42 O(17)  Bbb    -0.0175     1.267     0.452     0.423 -0.4963  0.3230  0.8059
              Bcc     0.0549    -3.970    -1.417    -1.324  0.3912  0.9118 -0.1245
 
              Baa    -0.8196    39.147    13.969    13.058  0.1172 -0.1123  0.9867
    43 Ni(61) Bbb    -0.1084     5.177     1.847     1.727  0.4919  0.8697  0.0406
              Bcc     0.9280   -44.324   -15.816   -14.785  0.8628 -0.4806 -0.1572
 
              Baa    -0.2946   -15.421    -5.503    -5.144 -0.0869 -0.2908  0.9528
    44 Cl(35) Bbb    -0.2129   -11.145    -3.977    -3.718  0.9131  0.3593  0.1929
              Bcc     0.5076    26.566     9.480     8.862 -0.3984  0.8868  0.2343
 
              Baa    -0.0042    -0.562    -0.201    -0.187  0.5650  0.6201  0.5444
    45 C(13)  Bbb    -0.0022    -0.300    -0.107    -0.100 -0.4270  0.7842 -0.4502
              Bcc     0.0064     0.862     0.308     0.288 -0.7060  0.0219  0.7078
 
              Baa    -0.0024    -0.316    -0.113    -0.105  0.3948  0.3331  0.8562
    46 C(13)  Bbb    -0.0017    -0.234    -0.083    -0.078 -0.0890  0.9414 -0.3252
              Bcc     0.0041     0.549     0.196     0.183  0.9144 -0.0522 -0.4014
 
              Baa    -0.0033    -1.757    -0.627    -0.586  0.2473  0.4612  0.8522
    47 H(1)   Bbb    -0.0026    -1.372    -0.490    -0.458 -0.3128  0.8704 -0.3803
              Bcc     0.0059     3.129     1.117     1.044  0.9171  0.1725 -0.3595
 
              Baa    -0.0016    -0.876    -0.312    -0.292  0.0560  0.9934  0.1003
    48 H(1)   Bbb    -0.0015    -0.796    -0.284    -0.266  0.2306 -0.1106  0.9667
              Bcc     0.0031     1.672     0.596     0.558  0.9714 -0.0310 -0.2352
 
              Baa    -0.0014    -0.736    -0.263    -0.246  0.3568  0.5916  0.7230
    49 H(1)   Bbb    -0.0012    -0.642    -0.229    -0.214 -0.3188  0.8046 -0.5011
              Bcc     0.0026     1.378     0.492     0.460  0.8781  0.0517 -0.4756
 
              Baa    -0.0012    -0.166    -0.059    -0.055  0.1097  0.8508 -0.5140
    50 C(13)  Bbb    -0.0011    -0.147    -0.052    -0.049  0.6779  0.3141  0.6647
              Bcc     0.0023     0.313     0.112     0.104  0.7269 -0.4213 -0.5423
 
              Baa    -0.0011    -0.564    -0.201    -0.188  0.4474  0.8579 -0.2526
    51 H(1)   Bbb    -0.0010    -0.538    -0.192    -0.179  0.5785 -0.0623  0.8133
              Bcc     0.0021     1.102     0.393     0.367  0.6820 -0.5100 -0.5242
 
              Baa    -0.0009    -0.464    -0.166    -0.155  0.5627  0.7151  0.4147
    52 H(1)   Bbb    -0.0008    -0.434    -0.155    -0.145  0.2805 -0.6371  0.7180
              Bcc     0.0017     0.898     0.320     0.299  0.7776 -0.2877 -0.5591
 
              Baa    -0.0010    -0.557    -0.199    -0.186  0.4711  0.8675  0.1596
    53 H(1)   Bbb    -0.0009    -0.489    -0.175    -0.163  0.2400 -0.3001  0.9232
              Bcc     0.0020     1.047     0.373     0.349  0.8488 -0.3966 -0.3496
 
              Baa    -0.0025    -0.340    -0.121    -0.113  0.4692  0.8775  0.0993
    54 C(13)  Bbb    -0.0020    -0.271    -0.097    -0.090  0.6299 -0.4114  0.6588
              Bcc     0.0046     0.611     0.218     0.204 -0.6189  0.2466  0.7458
 
              Baa    -0.0043    -2.300    -0.821    -0.767  0.4870  0.8513  0.1951
    55 H(1)   Bbb    -0.0031    -1.629    -0.581    -0.543  0.6499 -0.5025  0.5702
              Bcc     0.0074     3.928     1.402     1.310 -0.5834  0.1509  0.7980
 
              Baa    -0.0016    -0.838    -0.299    -0.280  0.4704  0.8485  0.2424
    56 H(1)   Bbb    -0.0013    -0.676    -0.241    -0.226  0.6077 -0.5106  0.6083
              Bcc     0.0028     1.514     0.540     0.505 -0.6399  0.1388  0.7558
 
              Baa    -0.0021    -1.109    -0.396    -0.370  0.4701  0.8675 -0.1628
    57 H(1)   Bbb    -0.0016    -0.858    -0.306    -0.286  0.7258 -0.2749  0.6306
              Bcc     0.0037     1.966     0.702     0.656 -0.5022  0.4146  0.7589
 
              Baa    -0.0077    -1.030    -0.368    -0.344  0.0519 -0.3478  0.9361
    58 C(13)  Bbb    -0.0047    -0.624    -0.223    -0.208 -0.4875  0.8093  0.3277
              Bcc     0.0123     1.654     0.590     0.552  0.8716  0.4734  0.1275
 
              Baa    -0.0036    -0.482    -0.172    -0.161 -0.3940  0.9187  0.0257
    59 C(13)  Bbb    -0.0032    -0.432    -0.154    -0.144  0.1865  0.0525  0.9811
              Bcc     0.0068     0.914     0.326     0.305  0.9000  0.3914 -0.1920
 
              Baa    -0.0051    -2.726    -0.973    -0.909 -0.6112  0.7509 -0.2503
    60 H(1)   Bbb    -0.0048    -2.560    -0.913    -0.854  0.1151  0.3972  0.9105
              Bcc     0.0099     5.286     1.886     1.763  0.7831  0.5277 -0.3292
 
              Baa    -0.0027    -1.447    -0.516    -0.483 -0.2912  0.9560 -0.0345
    61 H(1)   Bbb    -0.0024    -1.298    -0.463    -0.433  0.3220  0.1319  0.9375
              Bcc     0.0051     2.745     0.979     0.915  0.9008  0.2619 -0.3463
 
              Baa    -0.0021    -1.147    -0.409    -0.383  0.0268  0.2401  0.9704
    62 H(1)   Bbb    -0.0021    -1.133    -0.404    -0.378 -0.5054  0.8408 -0.1941
              Bcc     0.0043     2.280     0.814     0.760  0.8625  0.4853 -0.1439
 
              Baa    -0.0052    -0.701    -0.250    -0.234 -0.1783  0.8572 -0.4831
    63 C(13)  Bbb    -0.0046    -0.612    -0.218    -0.204 -0.4387  0.3702  0.8188
              Bcc     0.0098     1.312     0.468     0.438  0.8808  0.3579  0.3101
 
              Baa    -0.0042    -2.262    -0.807    -0.754  0.0073  0.9464 -0.3229
    64 H(1)   Bbb    -0.0040    -2.112    -0.754    -0.705 -0.5352  0.2765  0.7982
              Bcc     0.0082     4.374     1.561     1.459  0.8447  0.1670  0.5085
 
              Baa    -0.0102    -5.449    -1.944    -1.818  0.0139 -0.5386  0.8425
    65 H(1)   Bbb    -0.0082    -4.395    -1.568    -1.466 -0.5995  0.6698  0.4381
              Bcc     0.0184     9.844     3.513     3.284  0.8002  0.5112  0.3135
 
              Baa    -0.0029    -1.547    -0.552    -0.516  0.0339 -0.5970  0.8016
    66 H(1)   Bbb    -0.0025    -1.356    -0.484    -0.452 -0.5494  0.6588  0.5139
              Bcc     0.0054     2.903     1.036     0.968  0.8348  0.4578  0.3057
 
              Baa    -0.0024    -0.325    -0.116    -0.109 -0.0679  0.9639  0.2573
    67 C(13)  Bbb    -0.0022    -0.295    -0.105    -0.098 -0.1798 -0.2655  0.9472
              Bcc     0.0046     0.620     0.221     0.207  0.9814  0.0181  0.1913
 
              Baa    -0.0019    -0.990    -0.353    -0.330 -0.0829  0.8530  0.5152
    68 H(1)   Bbb    -0.0017    -0.887    -0.316    -0.296 -0.2396 -0.5189  0.8206
              Bcc     0.0035     1.877     0.670     0.626  0.9673 -0.0554  0.2474
 
              Baa    -0.0015    -0.778    -0.277    -0.259 -0.1190 -0.0911  0.9887
    69 H(1)   Bbb    -0.0014    -0.729    -0.260    -0.243 -0.2179  0.9739  0.0635
              Bcc     0.0028     1.506     0.538     0.503  0.9687  0.2079  0.1357
 
              Baa    -0.0017    -0.899    -0.321    -0.300  0.0114  0.9131 -0.4075
    70 H(1)   Bbb    -0.0015    -0.796    -0.284    -0.265  0.0510  0.4065  0.9122
              Bcc     0.0032     1.695     0.605     0.565  0.9986 -0.0311 -0.0419
 
              Baa    -0.0032    -0.431    -0.154    -0.144  0.0077  0.0279  0.9996
    71 C(13)  Bbb    -0.0004    -0.049    -0.017    -0.016 -0.5823  0.8128 -0.0182
              Bcc     0.0036     0.480     0.171     0.160  0.8129  0.5819 -0.0225
 
              Baa    -0.0043    -0.574    -0.205    -0.191  0.8127 -0.5824 -0.0155
    72 C(13)  Bbb    -0.0001    -0.008    -0.003    -0.003 -0.0656 -0.1178  0.9909
              Bcc     0.0043     0.582     0.208     0.194  0.5789  0.8043  0.1339
 
              Baa    -0.0041    -0.544    -0.194    -0.182  0.7948 -0.6008  0.0859
    73 C(13)  Bbb    -0.0006    -0.084    -0.030    -0.028  0.0673  0.2279  0.9713
              Bcc     0.0047     0.628     0.224     0.209  0.6032  0.7662 -0.2216
 
              Baa    -0.0015    -0.196    -0.070    -0.065 -0.0610 -0.1222  0.9906
    74 C(13)  Bbb    -0.0000    -0.006    -0.002    -0.002 -0.5082  0.8580  0.0746
              Bcc     0.0015     0.202     0.072     0.067  0.8591  0.4989  0.1144
 
              Baa    -0.0020    -1.043    -0.372    -0.348 -0.2979 -0.1180  0.9473
    75 H(1)   Bbb    -0.0017    -0.924    -0.330    -0.308 -0.6854  0.7171 -0.1262
              Bcc     0.0037     1.967     0.702     0.656  0.6644  0.6869  0.2945
 
              Baa    -0.0016    -0.215    -0.077    -0.072  0.0877  0.1902  0.9778
    76 C(13)  Bbb     0.0000     0.003     0.001     0.001 -0.5855  0.8040 -0.1038
              Bcc     0.0016     0.212     0.076     0.071  0.8059  0.5634 -0.1819
 
              Baa    -0.0023    -1.210    -0.432    -0.403  0.0766  0.4427  0.8934
    77 H(1)   Bbb    -0.0017    -0.919    -0.328    -0.306  0.7441 -0.6217  0.2443
              Bcc     0.0040     2.128     0.759     0.710  0.6636  0.6461 -0.3771
 
              Baa    -0.0035    -0.474    -0.169    -0.158  0.8398 -0.5428 -0.0110
    78 C(13)  Bbb     0.0007     0.090     0.032     0.030  0.0301  0.0262  0.9992
              Bcc     0.0029     0.384     0.137     0.128  0.5421  0.8394 -0.0384
 
              Baa    -0.0008    -0.418    -0.149    -0.139 -0.1443 -0.1754  0.9739
    79 H(1)   Bbb    -0.0007    -0.389    -0.139    -0.130  0.7558 -0.6547 -0.0059
              Bcc     0.0015     0.806     0.288     0.269  0.6387  0.7352  0.2271
 
              Baa    -0.0008    -0.440    -0.157    -0.147 -0.0065  0.4037  0.9149
    80 H(1)   Bbb    -0.0007    -0.376    -0.134    -0.125  0.7762 -0.5748  0.2591
              Bcc     0.0015     0.815     0.291     0.272  0.6305  0.7118 -0.3097
 
              Baa    -0.0004    -0.057    -0.020    -0.019 -0.2418  0.1424  0.9598
    81 C(13)  Bbb    -0.0004    -0.052    -0.018    -0.017  0.7454 -0.6060  0.2777
              Bcc     0.0008     0.108     0.039     0.036  0.6212  0.7826  0.0404
 
              Baa    -0.0005    -0.242    -0.086    -0.081 -0.4766  0.2059  0.8546
    82 H(1)   Bbb    -0.0004    -0.222    -0.079    -0.074  0.6821 -0.5267  0.5073
              Bcc     0.0009     0.464     0.166     0.155  0.5546  0.8248  0.1106
 
              Baa    -0.0004    -0.218    -0.078    -0.073 -0.0755 -0.0664  0.9949
    83 H(1)   Bbb    -0.0004    -0.206    -0.073    -0.069  0.7334 -0.6798  0.0103
              Bcc     0.0008     0.423     0.151     0.141  0.6756  0.7304  0.1000
 
              Baa    -0.0003    -0.164    -0.058    -0.055 -0.4862  0.3617  0.7955
    84 H(1)   Bbb    -0.0003    -0.158    -0.056    -0.053  0.6252 -0.4920  0.6058
              Bcc     0.0006     0.322     0.115     0.107  0.6105  0.7919  0.0131
 
              Baa    -0.0026     0.191     0.068     0.064  0.8470 -0.5315 -0.0003
    85 O(17)  Bbb     0.0005    -0.035    -0.013    -0.012  0.0432  0.0684  0.9967
              Bcc     0.0022    -0.156    -0.056    -0.052  0.5298  0.8443 -0.0809
 
              Baa    -0.0047    -2.534    -0.904    -0.845  0.4155  0.5849  0.6966
    86 H(1)   Bbb    -0.0028    -1.491    -0.532    -0.497 -0.6592  0.7214 -0.2124
              Bcc     0.0075     4.025     1.436     1.343 -0.6268 -0.3709  0.6852
 
              Baa    -0.0109    -1.459    -0.521    -0.487  0.8190  0.2760 -0.5030
    87 C(13)  Bbb    -0.0039    -0.517    -0.185    -0.173  0.0962  0.7983  0.5946
              Bcc     0.0147     1.976     0.705     0.659  0.5656 -0.5353  0.6273
 
              Baa    -0.0114    -1.527    -0.545    -0.509 -0.2132  0.8451  0.4902
    88 C(13)  Bbb    -0.0040    -0.537    -0.192    -0.179  0.9450  0.0510  0.3231
              Bcc     0.0154     2.064     0.736     0.688 -0.2480 -0.5321  0.8095
 
              Baa    -0.0124    -1.666    -0.595    -0.556  0.3805  0.6268  0.6800
    89 C(13)  Bbb    -0.0051    -0.687    -0.245    -0.229  0.8943 -0.4366 -0.0980
              Bcc     0.0175     2.353     0.840     0.785 -0.2355 -0.6454  0.7267
 
              Baa    -0.0073    -0.980    -0.350    -0.327 -0.6113 -0.4806  0.6288
    90 C(13)  Bbb     0.0010     0.128     0.046     0.043 -0.0557  0.8187  0.5715
              Bcc     0.0064     0.852     0.304     0.284  0.7895 -0.3143  0.5272
 
              Baa    -0.0040    -2.138    -0.763    -0.713  0.8474  0.3969 -0.3528
    91 H(1)   Bbb    -0.0028    -1.492    -0.532    -0.498 -0.3295  0.9140  0.2369
              Bcc     0.0068     3.630     1.295     1.211  0.4164 -0.0845  0.9052
 
              Baa    -0.0078    -1.045    -0.373    -0.348 -0.5811 -0.4075  0.7045
    92 C(13)  Bbb     0.0010     0.136     0.049     0.046  0.2818  0.7113  0.6439
              Bcc     0.0068     0.908     0.324     0.303  0.7635 -0.5727  0.2985
 
              Baa    -0.0045    -2.396    -0.855    -0.799  0.8552  0.0758 -0.5127
    93 H(1)   Bbb    -0.0035    -1.885    -0.673    -0.629  0.4517  0.3759  0.8091
              Bcc     0.0080     4.281     1.528     1.428 -0.2541  0.9236 -0.2872
 
              Baa    -0.0108    -1.454    -0.519    -0.485  0.1317  0.7779  0.6145
    94 C(13)  Bbb    -0.0056    -0.751    -0.268    -0.250  0.9043 -0.3482  0.2469
              Bcc     0.0164     2.204     0.787     0.735 -0.4060 -0.5232  0.7493
 
              Baa    -0.0016    -0.831    -0.296    -0.277  0.6430  0.6721 -0.3673
    95 H(1)   Bbb    -0.0011    -0.613    -0.219    -0.204 -0.3605  0.6887  0.6291
              Bcc     0.0027     1.443     0.515     0.481  0.6758 -0.2720  0.6851
 
              Baa    -0.0016    -0.870    -0.311    -0.290 -0.5433 -0.0420  0.8385
    96 H(1)   Bbb    -0.0014    -0.747    -0.266    -0.249  0.6026  0.6759  0.4243
              Bcc     0.0030     1.617     0.577     0.539 -0.5846  0.7358 -0.3419
 
              Baa    -0.0022    -1.169    -0.417    -0.390  0.1679  0.7824  0.5997
    97 H(1)   Bbb    -0.0009    -0.459    -0.164    -0.153 -0.6559 -0.3655  0.6605
              Bcc     0.0031     1.629     0.581     0.543  0.7360 -0.5042  0.4518
 

 ---------------------------------------------------------------------------------

 1\1\GINC-M9-14-1\SP\UM06L\Gen\C41H46Cl1N4Ni2O3(4)\MALLA1\24-Aug-2022\0
 \\#m06l/gen pseudo=read integral=ultrafine temperature=308 scrf=(read)
 \\Title Card Required\\0,4\C,0,2.442376,-2.136646,3.288723\C,0,1.57706
 7,-1.541767,4.216779\C,0,0.375452,-0.925605,3.772035\C,0,0.11493,-0.91
 7558,2.343758\C,0,2.129255,-2.064555,1.918533\H,0,-0.412058,-0.279936,
 5.71031\H,0,3.355892,-2.658133,3.606644\H,0,1.806812,-1.564056,5.29323
 7\C,0,-0.595336,-0.3169,4.625566\C,0,-1.987389,0.105649,2.692868\C,0,-
 1.776515,0.197418,4.082382\H,0,-2.555327,0.64121,4.719331\N,0,-1.03856
 8,-0.411466,1.840159\N,0,1.009474,-1.4292,1.460842\C,0,2.92619,-2.7022
 44,0.873402\C,0,-3.228092,0.430398,2.015595\N,0,2.670881,-2.610562,-0.
 4003\N,0,-3.396656,0.196459,0.734532\Ni,0,-1.565275,-0.382769,-0.10907
 6\C,0,1.680552,0.494246,-0.616295\C,0,2.259642,1.236244,0.363764\C,0,-
 0.950401,-0.097148,-2.369905\H,0,-1.600771,-0.825424,-2.886627\C,0,-1.
 534496,1.091941,-1.924641\H,0,-0.885469,1.814281,-1.392514\C,0,0.46504
 8,-0.44334,-2.322991\H,0,0.740899,-1.258689,-3.015874\C,0,1.494078,0.6
 75578,-2.086891\H,0,1.133691,1.68782,-2.39921\H,0,2.201556,0.855357,1.
 399862\C,0,-5.301435,1.200542,1.683426\H,0,-5.321492,2.296823,1.508053
 \H,0,-6.277383,0.88231,2.096076\C,0,4.545609,-4.026272,0.054227\H,0,4.
 551587,-5.131182,0.133721\H,0,5.594215,-3.667457,-0.001457\C,0,3.64121
 3,-3.488426,-1.099397\H,0,3.064521,-4.327915,-1.552209\C,0,-4.828974,0
 .407027,0.434356\H,0,-4.925203,1.030039,-0.479236\O,0,3.958614,-3.4886
 85,1.268315\O,0,-4.281756,0.931374,2.695391\Ni,0,0.775292,-1.179223,-0
 .485198\Cl,0,-1.153016,-2.698216,-0.499581\C,0,4.427926,-2.810385,-2.2
 69519\C,0,5.132391,-1.525261,-1.788843\H,0,4.400413,-0.794723,-1.38674
 \H,0,5.879441,-1.729199,-0.992323\H,0,5.676038,-1.045182,-2.629304\C,0
 ,5.46742,-3.819255,-2.811007\H,0,4.983431,-4.767823,-3.128542\H,0,5.98
 5203,-3.394888,-3.696516\H,0,6.250062,-4.067153,-2.063569\C,0,3.439521
 ,-2.472819,-3.402716\H,0,2.6555,-1.779244,-3.047255\H,0,3.966917,-1.99
 3925,-4.254312\H,0,2.936991,-3.387139,-3.784105\C,0,-5.597787,-0.93932
 8,0.173117\C,0,-5.530603,-1.870729,1.402037\H,0,-4.482285,-2.142878,1.
 642827\H,0,-5.988145,-1.415309,2.305435\H,0,-6.079524,-2.813585,1.1967
 24\C,0,-4.970247,-1.652166,-1.043142\H,0,-5.023025,-1.013654,-1.949046
 \H,0,-3.905704,-1.90884,-0.864413\H,0,-5.51577,-2.595212,-1.258781\C,0
 ,-7.069369,-0.598901,-0.153628\H,0,-7.140583,0.083403,-1.027349\H,0,-7
 .630238,-1.524241,-0.401623\H,0,-7.594177,-0.117789,0.69877\C,0,2.9638
 25,2.527581,0.254002\C,0,3.340024,3.201864,1.444407\C,0,3.311356,3.161
 497,-0.973846\C,0,4.008638,4.436909,1.434539\H,0,3.095908,2.739773,2.4
 15619\C,0,3.976836,4.390235,-1.000425\H,0,3.069073,2.678503,-1.930682\
 C,0,4.331782,5.047003,0.20211\H,0,4.273216,4.912581,2.389792\H,0,4.243
 15,4.868821,-1.955834\C,0,5.362661,6.93998,1.248228\H,0,4.48325,7.2086
 96,1.875898\H,0,6.076002,6.348448,1.86531\H,0,5.862003,7.868527,0.9130
 3\O,0,4.978431,6.24289,0.069434\H,0,2.432174,0.475805,-2.654125\C,0,-2
 .846234,1.631414,-2.316316\C,0,-3.684324,1.021639,-3.287826\C,0,-3.279
 968,2.86187,-1.752623\C,0,-4.905641,1.604743,-3.657793\H,0,-3.365949,0
 .087269,-3.775639\C,0,-4.500202,3.446136,-2.125659\H,0,-2.638708,3.363
 156,-1.008921\C,0,-5.32536,2.818252,-3.077935\H,0,-5.53329,1.11223,-4.
 417881\H,0,-4.807977,4.402544,-1.673012\H,0,-6.280802,3.277048,-3.3774
 78\\Version=ES64L-G16RevB.01\State=4-A\HF=-2834.2209476\S2=3.786819\S2
 -1=0.\S2A=3.750638\RMSD=1.396e-09\Dipole=-0.2359896,0.9322174,1.010736
 2\Quadrupole=13.3145091,-11.8843979,-1.4301112,-14.3411903,2.6631099,9
 .4645082\PG=C01 [X(C41H46Cl1N4Ni2O3)]\\@


 CLIMB THE MOUNTAINS AND GET THEIR GOOD TIDINGS.
 NATURE'S PEACE WILL FLOW INTO YOU AS SUNSHINE FLOWS INTO TREES.
 THE WINDS WILL BLOW THEIR OWN FRESHNESS INTO YOU, 
 AND CARES WILL DROP OFF LIKE AUTUMN LEAVES.

                                         -- JOHN MUIR
 Job cpu time:       1 days  6 hours  4 minutes 38.0 seconds.
 Elapsed time:       0 days  2 hours 30 minutes 36.3 seconds.
 File lengths (MBytes):  RWF=   3748 Int=      0 D2E=      0 Chk=    238 Scr=      1
 Normal termination of Gaussian 16 at Wed Aug 24 17:48:25 2022.
