 Entering Gaussian System, Link 0=g16
 Input=Pro_R_E_tsd1_m06l.com
 Output=Pro_R_E_tsd1_m06l.log
 Initial command:
 /apps/gaussian16/B.01/AVX2/g16/l1.exe "/tmp/51822070/Gau-10921.inp" -scrdir="/tmp/51822070/"
 Entering Link 1 = /apps/gaussian16/B.01/AVX2/g16/l1.exe PID=     10922.
  
 Copyright (c) 1988-2017, Gaussian, Inc.  All Rights Reserved.
  
 This is part of the Gaussian(R) 16 program.  It is based on
 the Gaussian(R) 09 system (copyright 2009, Gaussian, Inc.),
 the Gaussian(R) 03 system (copyright 2003, Gaussian, Inc.),
 the Gaussian(R) 98 system (copyright 1998, Gaussian, Inc.),
 the Gaussian(R) 94 system (copyright 1995, Gaussian, Inc.),
 the Gaussian 92(TM) system (copyright 1992, Gaussian, Inc.),
 the Gaussian 90(TM) system (copyright 1990, Gaussian, Inc.),
 the Gaussian 88(TM) system (copyright 1988, Gaussian, Inc.),
 the Gaussian 86(TM) system (copyright 1986, Carnegie Mellon
 University), and the Gaussian 82(TM) system (copyright 1983,
 Carnegie Mellon University). Gaussian is a federally registered
 trademark of Gaussian, Inc.
  
 This software contains proprietary and confidential information,
 including trade secrets, belonging to Gaussian, Inc.
  
 This software is provided under written license and may be
 used, copied, transmitted, or stored only in accord with that
 written license.
  
 The following legend is applicable only to US Government
 contracts under FAR:
  
                    RESTRICTED RIGHTS LEGEND
  
 Use, reproduction and disclosure by the US Government is
 subject to restrictions as set forth in subparagraphs (a)
 and (c) of the Commercial Computer Software - Restricted
 Rights clause in FAR 52.227-19.
  
 Gaussian, Inc.
 340 Quinnipiac St., Bldg. 40, Wallingford CT 06492
  
  
 ---------------------------------------------------------------
 Warning -- This program may not be used in any manner that
 competes with the business of Gaussian, Inc. or will provide
 assistance to any competitor of Gaussian, Inc.  The licensee
 of this program is prohibited from giving any competitor of
 Gaussian, Inc. access to this program.  By using this program,
 the user acknowledges that Gaussian, Inc. is engaged in the
 business of creating and licensing software in the field of
 computational chemistry and represents and warrants to the
 licensee that it is not a competitor of Gaussian, Inc. and that
 it will not use this program in any manner prohibited above.
 ---------------------------------------------------------------
  

 Cite this work as:
 Gaussian 16, Revision B.01,
 M. J. Frisch, G. W. Trucks, H. B. Schlegel, G. E. Scuseria, 
 M. A. Robb, J. R. Cheeseman, G. Scalmani, V. Barone, 
 G. A. Petersson, H. Nakatsuji, X. Li, M. Caricato, A. V. Marenich, 
 J. Bloino, B. G. Janesko, R. Gomperts, B. Mennucci, H. P. Hratchian, 
 J. V. Ortiz, A. F. Izmaylov, J. L. Sonnenberg, D. Williams-Young, 
 F. Ding, F. Lipparini, F. Egidi, J. Goings, B. Peng, A. Petrone, 
 T. Henderson, D. Ranasinghe, V. G. Zakrzewski, J. Gao, N. Rega, 
 G. Zheng, W. Liang, M. Hada, M. Ehara, K. Toyota, R. Fukuda, 
 J. Hasegawa, M. Ishida, T. Nakajima, Y. Honda, O. Kitao, H. Nakai, 
 T. Vreven, K. Throssell, J. A. Montgomery, Jr., J. E. Peralta, 
 F. Ogliaro, M. J. Bearpark, J. J. Heyd, E. N. Brothers, K. N. Kudin, 
 V. N. Staroverov, T. A. Keith, R. Kobayashi, J. Normand, 
 K. Raghavachari, A. P. Rendell, J. C. Burant, S. S. Iyengar, 
 J. Tomasi, M. Cossi, J. M. Millam, M. Klene, C. Adamo, R. Cammi, 
 J. W. Ochterski, R. L. Martin, K. Morokuma, O. Farkas, 
 J. B. Foresman, and D. J. Fox, Gaussian, Inc., Wallingford CT, 2016.
 
 ******************************************
 Gaussian 16:  ES64L-G16RevB.01 20-Dec-2017
                24-Aug-2022 
 ******************************************
 %nprocshared=12
 Will use up to   12 processors via shared memory.
 %mem=24GB
 --------------------------------------------------------------------
 #m06l/gen pseudo=read integral=ultrafine temperature=308 scrf=(read)
 --------------------------------------------------------------------
 1/38=1,40=2,112=308000,172=1/1;
 2/12=2,17=6,18=5,40=1/2;
 3/5=7,11=2,16=1,17=8,25=1,30=1,70=2203,74=-53,75=-5/1,2,3;
 4//1;
 5/5=2,38=5/2;
 6/7=2,8=2,9=2,10=2,28=1/1;
 99/5=1,9=1/99;
 -------------------
 Title Card Required
 -------------------
 Symbolic Z-matrix:
 Charge =  0 Multiplicity = 2
 C                     1.32823   0.3267    3.80822 
 C                     0.17112   0.94563   4.2759 
 C                    -0.98434   0.99783   3.44085 
 C                    -0.86118   0.48419   2.09915 
 C                     1.357    -0.17243   2.48262 
 H                    -2.38863   1.90414   4.85784 
 H                     2.20877   0.19183   4.45216 
 H                     0.11894   1.3423    5.30146 
 C                    -2.26502   1.47998   3.84975 
 C                    -3.15349   0.77241   1.71261 
 C                    -3.35077   1.35888   2.98656 
 H                    -4.35991   1.67895   3.28359 
 N                    -1.92864   0.39424   1.25564 
 N                     0.32154   0.00158   1.61744 
 C                     2.40937  -1.05201   1.9639 
 C                    -4.2091    0.42848   0.76733 
 N                     2.34841  -1.61948   0.79379 
 N                    -3.95182  -0.33629  -0.25911 
 Ni                   -1.8505   -0.57984  -0.46336 
 C                     0.61259   0.93519  -1.59541 
 C                     1.72      1.73242  -1.81326 
 C                    -1.71832   0.41926  -2.24899 
 H                    -2.73864   0.63184  -2.60602 
 C                    -0.71502   1.54713  -2.10529 
 H                    -0.52006   1.92209  -3.14477 
 C                    -1.11979  -0.84567  -2.37288 
 H                    -1.6334   -1.71751  -2.80955 
 C                     0.37948  -0.84189  -2.22263 
 H                     0.95584  -0.66291  -3.15221 
 H                     1.50629   2.66636  -2.37692 
 C                    -6.22949   0.35026  -0.20323 
 H                    -6.58096   1.22163  -0.79106 
 H                    -7.11015  -0.19509   0.19039 
 C                     4.26523  -2.29825   2.02199 
 H                     4.56726  -3.13801   2.67433 
 H                     5.16645  -1.72561   1.71205 
 C                     3.36852  -2.70747   0.82676 
 H                     2.80035  -3.62815   1.10545 
 C                    -5.21849  -0.54965  -0.98488 
 H                    -5.09641  -0.17272  -2.02549 
 O                     3.41507  -1.40654   2.80355 
 O                    -5.4763    0.86003   0.93985 
 Ni                    0.56337  -0.51937  -0.22794 
 Cl                   -1.16881  -2.73698   0.25604 
 C                     4.11529  -3.06075  -0.4931 
 C                     4.83945  -1.846    -1.10251 
 H                     4.12954  -1.02746  -1.3355 
 H                     5.61512  -1.43356  -0.42477 
 H                     5.34877  -2.14217  -2.04359 
 C                     5.14399  -4.16958  -0.16139 
 H                     4.65736  -5.04986   0.31096 
 H                     5.6404   -4.51959  -1.09043 
 H                     5.94318  -3.81066   0.52121 
 C                     3.10206  -3.62069  -1.51299 
 H                     2.35512  -2.85578  -1.80063 
 H                     3.62435  -3.94619  -2.43709 
 H                     2.55266  -4.49469  -1.10422 
 C                    -5.60657  -2.06376  -1.09643 
 C                    -5.74378  -2.70192   0.30166 
 H                    -4.78654  -2.6461    0.85958 
 H                    -6.53404  -2.21665   0.91337 
 H                    -6.01682  -3.77368   0.20763 
 C                    -4.50446  -2.7999   -1.88798 
 H                    -4.3699   -2.35327  -2.89696 
 H                    -3.53196  -2.76243  -1.35416 
 H                    -4.78034  -3.86639  -2.02815 
 C                    -6.94227  -2.16672  -1.86587 
 H                    -6.86604  -1.70353  -2.87315 
 H                    -7.22171  -3.23171  -2.00656 
 H                    -7.78152  -1.6769   -1.32767 
 C                     3.13042   1.63955  -1.4033 
 C                     4.16848   1.95276  -2.31755 
 C                     3.5143    1.40082  -0.05732 
 C                     5.51973   1.9844   -1.93346 
 H                     3.90954   2.17667  -3.36585 
 C                     4.8517    1.44524   0.34778 
 H                     2.72595   1.22796   0.68797 
 C                     5.8732    1.72317  -0.58989 
 H                     6.28711   2.2191   -2.68497 
 H                     5.13372   1.27761   1.3991 
 C                     8.21469   2.02967  -1.00313 
 H                     8.27792   1.29422  -1.83651 
 H                     8.11362   3.0513   -1.4337 
 H                     9.14686   1.98057  -0.40934 
 O                     7.15198   1.7256   -0.10749 
 H                     0.76306  -1.8091   -1.80003 
 C                    -1.2507    2.76354  -1.34309 
 C                    -2.30265   3.51371  -1.91904 
 C                    -0.74321   3.18287  -0.09607 
 C                    -2.84101   4.63562  -1.26565 
 H                    -2.70186   3.2191   -2.90466 
 C                    -1.27787   4.3066    0.56144 
 H                     0.09236   2.62719   0.35339 
 C                    -2.33064   5.03699  -0.0172 
 H                    -3.65729   5.20542  -1.73892 
 H                    -0.86217   4.61577   1.53427 
 H                    -2.74527   5.91955   0.49588 
 
 Stoichiometry    C41H46ClN4Ni2O3(2)
 Framework group  C1[X(C41H46ClN4Ni2O3)]
 Deg. of freedom   285
 Full point group                 C1      NOp   1
 Largest Abelian subgroup         C1      NOp   1
 Largest concise Abelian subgroup C1      NOp   1
                         Standard orientation:                         
 ---------------------------------------------------------------------
 Center     Atomic      Atomic             Coordinates (Angstroms)
 Number     Number       Type             X           Y           Z
 ---------------------------------------------------------------------
      1          6           0        1.328228    0.326699    3.808223
      2          6           0        0.171117    0.945629    4.275902
      3          6           0       -0.984340    0.997831    3.440845
      4          6           0       -0.861182    0.484194    2.099151
      5          6           0        1.356995   -0.172430    2.482618
      6          1           0       -2.388631    1.904143    4.857838
      7          1           0        2.208771    0.191830    4.452155
      8          1           0        0.118944    1.342301    5.301462
      9          6           0       -2.265018    1.479982    3.849748
     10          6           0       -3.153487    0.772406    1.712607
     11          6           0       -3.350771    1.358876    2.986559
     12          1           0       -4.359914    1.678946    3.283591
     13          7           0       -1.928642    0.394243    1.255641
     14          7           0        0.321539    0.001580    1.617443
     15          6           0        2.409372   -1.052006    1.963896
     16          6           0       -4.209097    0.428476    0.767330
     17          7           0        2.348411   -1.619482    0.793786
     18          7           0       -3.951818   -0.336289   -0.259108
     19         28           0       -1.850502   -0.579841   -0.463355
     20          6           0        0.612590    0.935187   -1.595407
     21          6           0        1.719996    1.732419   -1.813257
     22          6           0       -1.718316    0.419264   -2.248988
     23          1           0       -2.738639    0.631835   -2.606017
     24          6           0       -0.715024    1.547130   -2.105291
     25          1           0       -0.520055    1.922086   -3.144768
     26          6           0       -1.119792   -0.845666   -2.372884
     27          1           0       -1.633399   -1.717513   -2.809546
     28          6           0        0.379484   -0.841892   -2.222625
     29          1           0        0.955844   -0.662914   -3.152214
     30          1           0        1.506292    2.666361   -2.376923
     31          6           0       -6.229493    0.350260   -0.203232
     32          1           0       -6.580963    1.221631   -0.791059
     33          1           0       -7.110153   -0.195091    0.190385
     34          6           0        4.265227   -2.298246    2.021992
     35          1           0        4.567263   -3.138009    2.674329
     36          1           0        5.166446   -1.725606    1.712048
     37          6           0        3.368525   -2.707466    0.826757
     38          1           0        2.800352   -3.628145    1.105445
     39          6           0       -5.218492   -0.549653   -0.984877
     40          1           0       -5.096413   -0.172722   -2.025494
     41          8           0        3.415074   -1.406540    2.803548
     42          8           0       -5.476295    0.860027    0.939851
     43         28           0        0.563371   -0.519370   -0.227935
     44         17           0       -1.168811   -2.736981    0.256043
     45          6           0        4.115293   -3.060754   -0.493101
     46          6           0        4.839451   -1.845995   -1.102511
     47          1           0        4.129537   -1.027455   -1.335497
     48          1           0        5.615115   -1.433561   -0.424766
     49          1           0        5.348772   -2.142171   -2.043585
     50          6           0        5.143988   -4.169582   -0.161385
     51          1           0        4.657357   -5.049861    0.310963
     52          1           0        5.640400   -4.519586   -1.090431
     53          1           0        5.943180   -3.810661    0.521208
     54          6           0        3.102063   -3.620685   -1.512994
     55          1           0        2.355120   -2.855780   -1.800629
     56          1           0        3.624350   -3.946194   -2.437090
     57          1           0        2.552657   -4.494691   -1.104224
     58          6           0       -5.606574   -2.063755   -1.096429
     59          6           0       -5.743779   -2.701920    0.301664
     60          1           0       -4.786537   -2.646097    0.859581
     61          1           0       -6.534044   -2.216652    0.913369
     62          1           0       -6.016817   -3.773677    0.207626
     63          6           0       -4.504460   -2.799898   -1.887976
     64          1           0       -4.369900   -2.353272   -2.896963
     65          1           0       -3.531963   -2.762429   -1.354157
     66          1           0       -4.780344   -3.866394   -2.028150
     67          6           0       -6.942267   -2.166724   -1.865868
     68          1           0       -6.866039   -1.703532   -2.873148
     69          1           0       -7.221715   -3.231710   -2.006564
     70          1           0       -7.781524   -1.676904   -1.327670
     71          6           0        3.130418    1.639554   -1.403296
     72          6           0        4.168481    1.952757   -2.317547
     73          6           0        3.514298    1.400818   -0.057323
     74          6           0        5.519731    1.984400   -1.933458
     75          1           0        3.909537    2.176667   -3.365853
     76          6           0        4.851699    1.445243    0.347782
     77          1           0        2.725950    1.227961    0.687970
     78          6           0        5.873203    1.723170   -0.589888
     79          1           0        6.287107    2.219096   -2.684965
     80          1           0        5.133716    1.277614    1.399096
     81          6           0        8.214686    2.029670   -1.003130
     82          1           0        8.277919    1.294218   -1.836506
     83          1           0        8.113621    3.051304   -1.433695
     84          1           0        9.146860    1.980572   -0.409337
     85          8           0        7.151978    1.725596   -0.107493
     86          1           0        0.763056   -1.809098   -1.800025
     87          6           0       -1.250698    2.763535   -1.343091
     88          6           0       -2.302649    3.513710   -1.919038
     89          6           0       -0.743208    3.182867   -0.096067
     90          6           0       -2.841008    4.635623   -1.265645
     91          1           0       -2.701856    3.219099   -2.904656
     92          6           0       -1.277868    4.306597    0.561443
     93          1           0        0.092364    2.627194    0.353386
     94          6           0       -2.330637    5.036988   -0.017201
     95          1           0       -3.657294    5.205423   -1.738916
     96          1           0       -0.862170    4.615773    1.534269
     97          1           0       -2.745270    5.919546    0.495877
 ---------------------------------------------------------------------
 Rotational constants (GHZ):           0.0899676           0.0405516           0.0372586
 General basis read from cards:  (5D, 7F)
 ======================================================================================================
                                       Pseudopotential Parameters
 ======================================================================================================
  Center     Atomic      Valence      Angular      Power
  Number     Number     Electrons     Momentum     of R      Exponent        Coefficient   SO-Coeffient
 ======================================================================================================
    1          6
                                   No pseudopotential on this center.
    2          6
                                   No pseudopotential on this center.
    3          6
                                   No pseudopotential on this center.
    4          6
                                   No pseudopotential on this center.
    5          6
                                   No pseudopotential on this center.
    6          1
                                   No pseudopotential on this center.
    7          1
                                   No pseudopotential on this center.
    8          1
                                   No pseudopotential on this center.
    9          6
                                   No pseudopotential on this center.
   10          6
                                   No pseudopotential on this center.
   11          6
                                   No pseudopotential on this center.
   12          1
                                   No pseudopotential on this center.
   13          7
                                   No pseudopotential on this center.
   14          7
                                   No pseudopotential on this center.
   15          6
                                   No pseudopotential on this center.
   16          6
                                   No pseudopotential on this center.
   17          7
                                   No pseudopotential on this center.
   18          7
                                   No pseudopotential on this center.
   19         28           18
                                      D and up 
                                                     1      469.9324331      -10.00000000    0.00000000
                                                     2       85.4236411      -69.40848050    0.00000000
                                                     2       21.2674984      -12.09510200    0.00000000
                                      S - D
                                                     0      162.1686097        3.00000000    0.00000000
                                                     1      176.5333232       22.02536180    0.00000000
                                                     2       68.9562010      443.01810880    0.00000000
                                                     2       13.5792838      145.56964110    0.00000000
                                      P - D
                                                     0       69.0181506        5.00000000    0.00000000
                                                     1      275.5955596        4.98828240    0.00000000
                                                     2       47.1315453      256.69458530    0.00000000
                                                     2       12.9874075       78.47544500    0.00000000
   20          6
                                   No pseudopotential on this center.
   21          6
                                   No pseudopotential on this center.
   22          6
                                   No pseudopotential on this center.
   23          1
                                   No pseudopotential on this center.
   24          6
                                   No pseudopotential on this center.
   25          1
                                   No pseudopotential on this center.
   26          6
                                   No pseudopotential on this center.
   27          1
                                   No pseudopotential on this center.
   28          6
                                   No pseudopotential on this center.
   29          1
                                   No pseudopotential on this center.
   30          1
                                   No pseudopotential on this center.
   31          6
                                   No pseudopotential on this center.
   32          1
                                   No pseudopotential on this center.
   33          1
                                   No pseudopotential on this center.
   34          6
                                   No pseudopotential on this center.
   35          1
                                   No pseudopotential on this center.
   36          1
                                   No pseudopotential on this center.
   37          6
                                   No pseudopotential on this center.
   38          1
                                   No pseudopotential on this center.
   39          6
                                   No pseudopotential on this center.
   40          1
                                   No pseudopotential on this center.
   41          8
                                   No pseudopotential on this center.
   42          8
                                   No pseudopotential on this center.
   43         28           18
                                      D and up 
                                                     1      469.9324331      -10.00000000    0.00000000
                                                     2       85.4236411      -69.40848050    0.00000000
                                                     2       21.2674984      -12.09510200    0.00000000
                                      S - D
                                                     0      162.1686097        3.00000000    0.00000000
                                                     1      176.5333232       22.02536180    0.00000000
                                                     2       68.9562010      443.01810880    0.00000000
                                                     2       13.5792838      145.56964110    0.00000000
                                      P - D
                                                     0       69.0181506        5.00000000    0.00000000
                                                     1      275.5955596        4.98828240    0.00000000
                                                     2       47.1315453      256.69458530    0.00000000
                                                     2       12.9874075       78.47544500    0.00000000
   44         17
                                   No pseudopotential on this center.
   45          6
                                   No pseudopotential on this center.
   46          6
                                   No pseudopotential on this center.
   47          1
                                   No pseudopotential on this center.
   48          1
                                   No pseudopotential on this center.
   49          1
                                   No pseudopotential on this center.
   50          6
                                   No pseudopotential on this center.
   51          1
                                   No pseudopotential on this center.
   52          1
                                   No pseudopotential on this center.
   53          1
                                   No pseudopotential on this center.
   54          6
                                   No pseudopotential on this center.
   55          1
                                   No pseudopotential on this center.
   56          1
                                   No pseudopotential on this center.
   57          1
                                   No pseudopotential on this center.
   58          6
                                   No pseudopotential on this center.
   59          6
                                   No pseudopotential on this center.
   60          1
                                   No pseudopotential on this center.
   61          1
                                   No pseudopotential on this center.
   62          1
                                   No pseudopotential on this center.
   63          6
                                   No pseudopotential on this center.
   64          1
                                   No pseudopotential on this center.
   65          1
                                   No pseudopotential on this center.
   66          1
                                   No pseudopotential on this center.
   67          6
                                   No pseudopotential on this center.
   68          1
                                   No pseudopotential on this center.
   69          1
                                   No pseudopotential on this center.
   70          1
                                   No pseudopotential on this center.
   71          6
                                   No pseudopotential on this center.
   72          6
                                   No pseudopotential on this center.
   73          6
                                   No pseudopotential on this center.
   74          6
                                   No pseudopotential on this center.
   75          1
                                   No pseudopotential on this center.
   76          6
                                   No pseudopotential on this center.
   77          1
                                   No pseudopotential on this center.
   78          6
                                   No pseudopotential on this center.
   79          1
                                   No pseudopotential on this center.
   80          1
                                   No pseudopotential on this center.
   81          6
                                   No pseudopotential on this center.
   82          1
                                   No pseudopotential on this center.
   83          1
                                   No pseudopotential on this center.
   84          1
                                   No pseudopotential on this center.
   85          8
                                   No pseudopotential on this center.
   86          1
                                   No pseudopotential on this center.
   87          6
                                   No pseudopotential on this center.
   88          6
                                   No pseudopotential on this center.
   89          6
                                   No pseudopotential on this center.
   90          6
                                   No pseudopotential on this center.
   91          1
                                   No pseudopotential on this center.
   92          6
                                   No pseudopotential on this center.
   93          1
                                   No pseudopotential on this center.
   94          6
                                   No pseudopotential on this center.
   95          1
                                   No pseudopotential on this center.
   96          1
                                   No pseudopotential on this center.
   97          1
                                   No pseudopotential on this center.
 ======================================================================================================
 There are  2094 symmetry adapted cartesian basis functions of A   symmetry.
 There are  1845 symmetry adapted basis functions of A   symmetry.
  1845 basis functions,  2989 primitive gaussians,  2094 cartesian basis functions
   199 alpha electrons      198 beta electrons
       nuclear repulsion energy      8548.7001829351 Hartrees.
 NAtoms=   97 NActive=   97 NUniq=   97 SFac= 1.00D+00 NAtFMM=   60 NAOKFM=T Big=T
 Integral buffers will be    131072 words long.
 Raffenetti 2 integral format.
 Two-electron integral symmetry is turned on.
 Using the following non-standard input for PCM:
 Eps=4.5
 --- end of non-standard input.
 ------------------------------------------------------------------------------
 Polarizable Continuum Model (PCM)
 =================================
 Model                : PCM.
 Atomic radii         : UFF (Universal Force Field).
 Polarization charges : Total charges.
 Charge compensation  : None.
 Solution method      : On-the-fly selection.
 Cavity type          : Scaled VdW (van der Waals Surface) (Alpha=1.100).
 Cavity algorithm     : GePol (No added spheres)
                        Default sphere list used, NSphG=   97.
                        Lebedev-Laikov grids with approx.  5.0 points / Ang**2.
                        Smoothing algorithm: York/Karplus (Gamma=1.0000).
                        Polarization charges: spherical gaussians, with
                                              point-specific exponents (IZeta= 3).
                        Self-potential: point-specific (ISelfS= 7).
                        Self-field    : sphere-specific E.n sum rule (ISelfD= 2).
 Solvent              : Water, Eps=   4.500000 Eps(inf)=   1.777849
 ------------------------------------------------------------------------------
 One-electron integrals computed using PRISM.
   1 Symmetry operations used in ECPInt.
 ECPInt:  NShTT=  274911 NPrTT=  843013 LenC2=  203982 LenP2D=  410140.
 LDataN:  DoStor=T MaxTD1= 6 Len=  172
 NBasis=  1845 RedAO= T EigKep=  6.45D-06  NBF=  1845
 NBsUse=  1845 1.00D-06 EigRej= -1.00D+00 NBFU=  1845
 ExpMin= 2.40D-02 ExpMax= 6.95D+04 ExpMxC= 2.37D+03 IAcc=3 IRadAn=         5 AccDes= 0.00D+00
 Harris functional with IExCor= 1009 and IRadAn=       5 diagonalized for initial guess.
 HarFok:  IExCor= 1009 AccDes= 0.00D+00 IRadAn=         5 IDoV= 1 UseB2=F ITyADJ=14
 ICtDFT=  3500011 ScaDFX=  1.000000  1.000000  1.000000  1.000000
 FoFCou: FMM=F IPFlag=           0 FMFlag=      100000 FMFlg1=        2001
         NFxFlg=           0 DoJE=T BraDBF=F KetDBF=T FulRan=T
         wScrn=  0.000000 ICntrl=       500 IOpCl=  0 I1Cent=   200000004 NGrid=           0
         NMat0=    1 NMatS0=      1 NMatT0=    0 NMatD0=    1 NMtDS0=    0 NMtDT0=    0
 Petite list used in FoFCou.
 Initial guess <Sx>= 0.0000 <Sy>= 0.0000 <Sz>= 0.5000 <S**2>= 0.7500 S= 0.5000
 Requested convergence on RMS density matrix=1.00D-08 within 128 cycles.
 Requested convergence on MAX density matrix=1.00D-06.
 Requested convergence on             energy=1.00D-06.
 No special actions if energy rises.
 Inv3:  Mode=1 IEnd=   104394603.
 Iteration    1 A*A^-1 deviation from unit magnitude is 3.66D-15 for   3063.
 Iteration    1 A*A^-1 deviation from orthogonality  is 2.00D-15 for   3597    183.
 Iteration    1 A^-1*A deviation from unit magnitude is 3.66D-15 for   3063.
 Iteration    1 A^-1*A deviation from orthogonality  is 7.12D-15 for   5457   5409.
 Rare condition: small coef for last iteration:  0.000D+00
 EnCoef did     8 forward-backward iterations
 EnCoef did    11 forward-backward iterations
 EnCoef did    11 forward-backward iterations
 EnCoef did    12 forward-backward iterations
 EnCoef did     6 forward-backward iterations
 EnCoef did   100 forward-backward iterations
 EnCoef did   100 forward-backward iterations
 EnCoef did     6 forward-backward iterations
 EnCoef did   100 forward-backward iterations
 EnCoef did     2 forward-backward iterations
 Restarting incremental Fock formation.
 Error on total polarization charges =  0.01425
 SCF Done:  E(UM06L) =  -2834.18988966     A.U. after   35 cycles
            NFock= 35  Conv=0.42D-08     -V/T= 2.0516
 <Sx>= 0.0000 <Sy>= 0.0000 <Sz>= 0.5000 <S**2>= 0.9898 S= 0.6134
 <L.S>=  0.00000000000    
 Annihilation of the first spin contaminant:
 S**2 before annihilation     0.9898,   after     0.7793

 **********************************************************************

            Population analysis using the SCF Density.

 **********************************************************************

 Orbital symmetries:
 Alpha Orbitals:
       Occupied  (A) (A) (A) (A) (A) (A) (A) (A) (A) (A) (A) (A)
                 (A) (A) (A) (A) (A) (A) (A) (A) (A) (A) (A) (A)
                 (A) (A) (A) (A) (A) (A) (A) (A) (A) (A) (A) (A)
                 (A) (A) (A) (A) (A) (A) (A) (A) (A) (A) (A) (A)
                 (A) (A) (A) (A) (A) (A) (A) (A) (A) (A) (A) (A)
                 (A) (A) (A) (A) (A) (A) (A) (A) (A) (A) (A) (A)
                 (A) (A) (A) (A) (A) (A) (A) (A) (A) (A) (A) (A)
                 (A) (A) (A) (A) (A) (A) (A) (A) (A) (A) (A) (A)
                 (A) (A) (A) (A) (A) (A) (A) (A) (A) (A) (A) (A)
                 (A) (A) (A) (A) (A) (A) (A) (A) (A) (A) (A) (A)
                 (A) (A) (A) (A) (A) (A) (A) (A) (A) (A) (A) (A)
                 (A) (A) (A) (A) (A) (A) (A) (A) (A) (A) (A) (A)
                 (A) (A) (A) (A) (A) (A) (A) (A) (A) (A) (A) (A)
                 (A) (A) (A) (A) (A) (A) (A) (A) (A) (A) (A) (A)
                 (A) (A) (A) (A) (A) (A) (A) (A) (A) (A) (A) (A)
                 (A) (A) (A) (A) (A) (A) (A) (A) (A) (A) (A) (A)
                 (A) (A) (A) (A) (A) (A) (A)
       Virtual   (A) (A) (A) (A) (A) (A) (A) (A) (A) (A) (A) (A)
                 (A) (A) (A) (A) (A) (A) (A) (A) (A) (A) (A) (A)
                 (A) (A) (A) (A) (A) (A) (A) (A) (A) (A) (A) (A)
                 (A) (A) (A) (A) (A) (A) (A) (A) (A) (A) (A) (A)
                 (A) (A) (A) (A) (A) (A) (A) (A) (A) (A) (A) (A)
                 (A) (A) (A) (A) (A) (A) (A) (A) (A) (A) (A) (A)
                 (A) (A) (A) (A) (A) (A) (A) (A) (A) (A) (A) (A)
                 (A) (A) (A) (A) (A) (A) (A) (A) (A) (A) (A) (A)
                 (A) (A) (A) (A) (A) (A) (A) (A) (A) (A) (A) (A)
                 (A) (A) (A) (A) (A) (A) (A) (A) (A) (A) (A) (A)
                 (A) (A) (A) (A) (A) (A) (A) (A) (A) (A) (A) (A)
                 (A) (A) (A) (A) (A) (A) (A) (A) (A) (A) (A) (A)
                 (A) (A) (A) (A) (A) (A) (A) (A) (A) (A) (A) (A)
                 (A) (A) (A) (A) (A) (A) (A) (A) (A) (A) (A) (A)
                 (A) (A) (A) (A) (A) (A) (A) (A) (A) (A) (A) (A)
                 (A) (A) (A) (A) (A) (A) (A) (A) (A) (A) (A) (A)
                 (A) (A) (A) (A) (A) (A) (A) (A) (A) (A) (A) (A)
                 (A) (A) (A) (A) (A) (A) (A) (A) (A) (A) (A) (A)
                 (A) (A) (A) (A) (A) (A) (A) (A) (A) (A) (A) (A)
                 (A) (A) (A) (A) (A) (A) (A) (A) (A) (A) (A) (A)
                 (A) (A) (A) (A) (A) (A) (A) (A) (A) (A) (A) (A)
                 (A) (A) (A) (A) (A) (A) (A) (A) (A) (A) (A) (A)
                 (A) (A) (A) (A) (A) (A) (A) (A) (A) (A) (A) (A)
                 (A) (A) (A) (A) (A) (A) (A) (A) (A) (A) (A) (A)
                 (A) (A) (A) (A) (A) (A) (A) (A) (A) (A) (A) (A)
                 (A) (A) (A) (A) (A) (A) (A) (A) (A) (A) (A) (A)
                 (A) (A) (A) (A) (A) (A) (A) (A) (A) (A) (A) (A)
                 (A) (A) (A) (A) (A) (A) (A) (A) (A) (A) (A) (A)
                 (A) (A) (A) (A) (A) (A) (A) (A) (A) (A) (A) (A)
                 (A) (A) (A) (A) (A) (A) (A) (A) (A) (A) (A) (A)
                 (A) (A) (A) (A) (A) (A) (A) (A) (A) (A) (A) (A)
                 (A) (A) (A) (A) (A) (A) (A) (A) (A) (A) (A) (A)
                 (A) (A) (A) (A) (A) (A) (A) (A) (A) (A) (A) (A)
                 (A) (A) (A) (A) (A) (A) (A) (A) (A) (A) (A) (A)
                 (A) (A) (A) (A) (A) (A) (A) (A) (A) (A) (A) (A)
                 (A) (A) (A) (A) (A) (A) (A) (A) (A) (A) (A) (A)
                 (A) (A) (A) (A) (A) (A) (A) (A) (A) (A) (A) (A)
                 (A) (A) (A) (A) (A) (A) (A) (A) (A) (A) (A) (A)
                 (A) (A) (A) (A) (A) (A) (A) (A) (A) (A) (A) (A)
                 (A) (A) (A) (A) (A) (A) (A) (A) (A) (A) (A) (A)
                 (A) (A) (A) (A) (A) (A) (A) (A) (A) (A) (A) (A)
                 (A) (A) (A) (A) (A) (A) (A) (A) (A) (A) (A) (A)
                 (A) (A) (A) (A) (A) (A) (A) (A) (A) (A) (A) (A)
                 (A) (A) (A) (A) (A) (A) (A) (A) (A) (A) (A) (A)
                 (A) (A) (A) (A) (A) (A) (A) (A) (A) (A) (A) (A)
                 (A) (A) (A) (A) (A) (A) (A) (A) (A) (A) (A) (A)
                 (A) (A) (A) (A) (A) (A) (A) (A) (A) (A) (A) (A)
                 (A) (A) (A) (A) (A) (A) (A) (A) (A) (A) (A) (A)
                 (A) (A) (A) (A) (A) (A) (A) (A) (A) (A) (A) (A)
                 (A) (A) (A) (A) (A) (A) (A) (A) (A) (A) (A) (A)
                 (A) (A) (A) (A) (A) (A) (A) (A) (A) (A) (A) (A)
                 (A) (A) (A) (A) (A) (A) (A) (A) (A) (A) (A) (A)
                 (A) (A) (A) (A) (A) (A) (A) (A) (A) (A) (A) (A)
                 (A) (A) (A) (A) (A) (A) (A) (A) (A) (A) (A) (A)
                 (A) (A) (A) (A) (A) (A) (A) (A) (A) (A) (A) (A)
                 (A) (A) (A) (A) (A) (A) (A) (A) (A) (A) (A) (A)
                 (A) (A) (A) (A) (A) (A) (A) (A) (A) (A) (A) (A)
                 (A) (A) (A) (A) (A) (A) (A) (A) (A) (A) (A) (A)
                 (A) (A) (A) (A) (A) (A) (A) (A) (A) (A) (A) (A)
                 (A) (A) (A) (A) (A) (A) (A) (A) (A) (A) (A) (A)
                 (A) (A) (A) (A) (A) (A) (A) (A) (A) (A) (A) (A)
                 (A) (A) (A) (A) (A) (A) (A) (A) (A) (A) (A) (A)
                 (A) (A) (A) (A) (A) (A) (A) (A) (A) (A) (A) (A)
                 (A) (A) (A) (A) (A) (A) (A) (A) (A) (A) (A) (A)
                 (A) (A) (A) (A) (A) (A) (A) (A) (A) (A) (A) (A)
                 (A) (A) (A) (A) (A) (A) (A) (A) (A) (A) (A) (A)
                 (A) (A) (A) (A) (A) (A) (A) (A) (A) (A) (A) (A)
                 (A) (A) (A) (A) (A) (A) (A) (A) (A) (A) (A) (A)
                 (A) (A) (A) (A) (A) (A) (A) (A) (A) (A) (A) (A)
                 (A) (A) (A) (A) (A) (A) (A) (A) (A) (A) (A) (A)
                 (A) (A) (A) (A) (A) (A) (A) (A) (A) (A) (A) (A)
                 (A) (A) (A) (A) (A) (A) (A) (A) (A) (A) (A) (A)
                 (A) (A) (A) (A) (A) (A) (A) (A) (A) (A) (A) (A)
                 (A) (A) (A) (A) (A) (A) (A) (A) (A) (A) (A) (A)
                 (A) (A) (A) (A) (A) (A) (A) (A) (A) (A) (A) (A)
                 (A) (A) (A) (A) (A) (A) (A) (A) (A) (A) (A) (A)
                 (A) (A) (A) (A) (A) (A) (A) (A) (A) (A) (A) (A)
                 (A) (A) (A) (A) (A) (A) (A) (A) (A) (A) (A) (A)
                 (A) (A) (A) (A) (A) (A) (A) (A) (A) (A) (A) (A)
                 (A) (A) (A) (A) (A) (A) (A) (A) (A) (A) (A) (A)
                 (A) (A) (A) (A) (A) (A) (A) (A) (A) (A) (A) (A)
                 (A) (A) (A) (A) (A) (A) (A) (A) (A) (A) (A) (A)
                 (A) (A) (A) (A) (A) (A) (A) (A) (A) (A) (A) (A)
                 (A) (A) (A) (A) (A) (A) (A) (A) (A) (A) (A) (A)
                 (A) (A) (A) (A) (A) (A) (A) (A) (A) (A) (A) (A)
                 (A) (A) (A) (A) (A) (A) (A) (A) (A) (A) (A) (A)
                 (A) (A) (A) (A) (A) (A) (A) (A) (A) (A) (A) (A)
                 (A) (A) (A) (A) (A) (A) (A) (A) (A) (A) (A) (A)
                 (A) (A) (A) (A) (A) (A) (A) (A) (A) (A) (A) (A)
                 (A) (A) (A) (A) (A) (A) (A) (A) (A) (A) (A) (A)
                 (A) (A) (A) (A) (A) (A) (A) (A) (A) (A) (A) (A)
                 (A) (A) (A) (A) (A) (A) (A) (A) (A) (A) (A) (A)
                 (A) (A) (A) (A) (A) (A) (A) (A) (A) (A) (A) (A)
                 (A) (A) (A) (A) (A) (A) (A) (A) (A) (A) (A) (A)
                 (A) (A) (A) (A) (A) (A) (A) (A) (A) (A) (A) (A)
                 (A) (A) (A) (A) (A) (A) (A) (A) (A) (A) (A) (A)
                 (A) (A) (A) (A) (A) (A) (A) (A) (A) (A) (A) (A)
                 (A) (A) (A) (A) (A) (A) (A) (A) (A) (A) (A) (A)
                 (A) (A) (A) (A) (A) (A) (A) (A) (A) (A) (A) (A)
                 (A) (A) (A) (A) (A) (A) (A) (A) (A) (A) (A) (A)
                 (A) (A) (A) (A) (A) (A) (A) (A) (A) (A) (A) (A)
                 (A) (A) (A) (A) (A) (A) (A) (A) (A) (A) (A) (A)
                 (A) (A) (A) (A) (A) (A) (A) (A) (A) (A) (A) (A)
                 (A) (A) (A) (A) (A) (A) (A) (A) (A) (A) (A) (A)
                 (A) (A) (A) (A) (A) (A) (A) (A) (A) (A) (A) (A)
                 (A) (A) (A) (A) (A) (A) (A) (A) (A) (A) (A) (A)
                 (A) (A) (A) (A) (A) (A) (A) (A) (A) (A) (A) (A)
                 (A) (A) (A) (A) (A) (A) (A) (A) (A) (A) (A) (A)
                 (A) (A) (A) (A) (A) (A) (A) (A) (A) (A) (A) (A)
                 (A) (A) (A) (A) (A) (A) (A) (A) (A) (A) (A) (A)
                 (A) (A) (A) (A) (A) (A) (A) (A) (A) (A) (A) (A)
                 (A) (A) (A) (A) (A) (A) (A) (A) (A) (A) (A) (A)
                 (A) (A) (A) (A) (A) (A) (A) (A) (A) (A) (A) (A)
                 (A) (A) (A) (A) (A) (A) (A) (A) (A) (A) (A) (A)
                 (A) (A) (A) (A) (A) (A) (A) (A) (A) (A) (A) (A)
                 (A) (A) (A) (A) (A) (A) (A) (A) (A) (A) (A) (A)
                 (A) (A) (A) (A) (A) (A) (A) (A) (A) (A) (A) (A)
                 (A) (A) (A) (A) (A) (A) (A) (A) (A) (A) (A) (A)
                 (A) (A) (A) (A) (A) (A) (A) (A) (A) (A) (A) (A)
                 (A) (A) (A) (A) (A) (A) (A) (A) (A) (A) (A) (A)
                 (A) (A) (A) (A) (A) (A) (A) (A) (A) (A) (A) (A)
                 (A) (A) (A) (A) (A) (A) (A) (A) (A) (A) (A) (A)
                 (A) (A) (A) (A) (A) (A) (A) (A) (A) (A) (A) (A)
                 (A) (A) (A) (A) (A) (A) (A) (A) (A) (A) (A) (A)
                 (A) (A) (A) (A) (A) (A) (A) (A) (A) (A) (A) (A)
                 (A) (A) (A) (A) (A) (A) (A) (A) (A) (A) (A) (A)
                 (A) (A) (A) (A) (A) (A) (A) (A) (A) (A) (A) (A)
                 (A) (A) (A) (A) (A) (A) (A) (A) (A) (A) (A) (A)
                 (A) (A) (A) (A) (A) (A) (A) (A) (A) (A) (A) (A)
                 (A) (A) (A) (A) (A) (A) (A) (A) (A) (A) (A) (A)
                 (A) (A) (A) (A) (A) (A) (A) (A) (A) (A) (A) (A)
                 (A) (A) (A) (A) (A) (A) (A) (A) (A) (A) (A) (A)
                 (A) (A) (A) (A) (A) (A) (A) (A) (A) (A) (A) (A)
                 (A) (A) (A) (A) (A) (A) (A) (A) (A) (A) (A) (A)
                 (A) (A) (A) (A) (A) (A) (A) (A) (A) (A) (A) (A)
                 (A) (A) (A) (A) (A) (A) (A) (A) (A) (A) (A) (A)
                 (A) (A) (A) (A) (A) (A) (A) (A) (A) (A) (A) (A)
                 (A) (A)
 Beta  Orbitals:
       Occupied  (A) (A) (A) (A) (A) (A) (A) (A) (A) (A) (A) (A)
                 (A) (A) (A) (A) (A) (A) (A) (A) (A) (A) (A) (A)
                 (A) (A) (A) (A) (A) (A) (A) (A) (A) (A) (A) (A)
                 (A) (A) (A) (A) (A) (A) (A) (A) (A) (A) (A) (A)
                 (A) (A) (A) (A) (A) (A) (A) (A) (A) (A) (A) (A)
                 (A) (A) (A) (A) (A) (A) (A) (A) (A) (A) (A) (A)
                 (A) (A) (A) (A) (A) (A) (A) (A) (A) (A) (A) (A)
                 (A) (A) (A) (A) (A) (A) (A) (A) (A) (A) (A) (A)
                 (A) (A) (A) (A) (A) (A) (A) (A) (A) (A) (A) (A)
                 (A) (A) (A) (A) (A) (A) (A) (A) (A) (A) (A) (A)
                 (A) (A) (A) (A) (A) (A) (A) (A) (A) (A) (A) (A)
                 (A) (A) (A) (A) (A) (A) (A) (A) (A) (A) (A) (A)
                 (A) (A) (A) (A) (A) (A) (A) (A) (A) (A) (A) (A)
                 (A) (A) (A) (A) (A) (A) (A) (A) (A) (A) (A) (A)
                 (A) (A) (A) (A) (A) (A) (A) (A) (A) (A) (A) (A)
                 (A) (A) (A) (A) (A) (A) (A) (A) (A) (A) (A) (A)
                 (A) (A) (A) (A) (A) (A)
       Virtual   (A) (A) (A) (A) (A) (A) (A) (A) (A) (A) (A) (A)
                 (A) (A) (A) (A) (A) (A) (A) (A) (A) (A) (A) (A)
                 (A) (A) (A) (A) (A) (A) (A) (A) (A) (A) (A) (A)
                 (A) (A) (A) (A) (A) (A) (A) (A) (A) (A) (A) (A)
                 (A) (A) (A) (A) (A) (A) (A) (A) (A) (A) (A) (A)
                 (A) (A) (A) (A) (A) (A) (A) (A) (A) (A) (A) (A)
                 (A) (A) (A) (A) (A) (A) (A) (A) (A) (A) (A) (A)
                 (A) (A) (A) (A) (A) (A) (A) (A) (A) (A) (A) (A)
                 (A) (A) (A) (A) (A) (A) (A) (A) (A) (A) (A) (A)
                 (A) (A) (A) (A) (A) (A) (A) (A) (A) (A) (A) (A)
                 (A) (A) (A) (A) (A) (A) (A) (A) (A) (A) (A) (A)
                 (A) (A) (A) (A) (A) (A) (A) (A) (A) (A) (A) (A)
                 (A) (A) (A) (A) (A) (A) (A) (A) (A) (A) (A) (A)
                 (A) (A) (A) (A) (A) (A) (A) (A) (A) (A) (A) (A)
                 (A) (A) (A) (A) (A) (A) (A) (A) (A) (A) (A) (A)
                 (A) (A) (A) (A) (A) (A) (A) (A) (A) (A) (A) (A)
                 (A) (A) (A) (A) (A) (A) (A) (A) (A) (A) (A) (A)
                 (A) (A) (A) (A) (A) (A) (A) (A) (A) (A) (A) (A)
                 (A) (A) (A) (A) (A) (A) (A) (A) (A) (A) (A) (A)
                 (A) (A) (A) (A) (A) (A) (A) (A) (A) (A) (A) (A)
                 (A) (A) (A) (A) (A) (A) (A) (A) (A) (A) (A) (A)
                 (A) (A) (A) (A) (A) (A) (A) (A) (A) (A) (A) (A)
                 (A) (A) (A) (A) (A) (A) (A) (A) (A) (A) (A) (A)
                 (A) (A) (A) (A) (A) (A) (A) (A) (A) (A) (A) (A)
                 (A) (A) (A) (A) (A) (A) (A) (A) (A) (A) (A) (A)
                 (A) (A) (A) (A) (A) (A) (A) (A) (A) (A) (A) (A)
                 (A) (A) (A) (A) (A) (A) (A) (A) (A) (A) (A) (A)
                 (A) (A) (A) (A) (A) (A) (A) (A) (A) (A) (A) (A)
                 (A) (A) (A) (A) (A) (A) (A) (A) (A) (A) (A) (A)
                 (A) (A) (A) (A) (A) (A) (A) (A) (A) (A) (A) (A)
                 (A) (A) (A) (A) (A) (A) (A) (A) (A) (A) (A) (A)
                 (A) (A) (A) (A) (A) (A) (A) (A) (A) (A) (A) (A)
                 (A) (A) (A) (A) (A) (A) (A) (A) (A) (A) (A) (A)
                 (A) (A) (A) (A) (A) (A) (A) (A) (A) (A) (A) (A)
                 (A) (A) (A) (A) (A) (A) (A) (A) (A) (A) (A) (A)
                 (A) (A) (A) (A) (A) (A) (A) (A) (A) (A) (A) (A)
                 (A) (A) (A) (A) (A) (A) (A) (A) (A) (A) (A) (A)
                 (A) (A) (A) (A) (A) (A) (A) (A) (A) (A) (A) (A)
                 (A) (A) (A) (A) (A) (A) (A) (A) (A) (A) (A) (A)
                 (A) (A) (A) (A) (A) (A) (A) (A) (A) (A) (A) (A)
                 (A) (A) (A) (A) (A) (A) (A) (A) (A) (A) (A) (A)
                 (A) (A) (A) (A) (A) (A) (A) (A) (A) (A) (A) (A)
                 (A) (A) (A) (A) (A) (A) (A) (A) (A) (A) (A) (A)
                 (A) (A) (A) (A) (A) (A) (A) (A) (A) (A) (A) (A)
                 (A) (A) (A) (A) (A) (A) (A) (A) (A) (A) (A) (A)
                 (A) (A) (A) (A) (A) (A) (A) (A) (A) (A) (A) (A)
                 (A) (A) (A) (A) (A) (A) (A) (A) (A) (A) (A) (A)
                 (A) (A) (A) (A) (A) (A) (A) (A) (A) (A) (A) (A)
                 (A) (A) (A) (A) (A) (A) (A) (A) (A) (A) (A) (A)
                 (A) (A) (A) (A) (A) (A) (A) (A) (A) (A) (A) (A)
                 (A) (A) (A) (A) (A) (A) (A) (A) (A) (A) (A) (A)
                 (A) (A) (A) (A) (A) (A) (A) (A) (A) (A) (A) (A)
                 (A) (A) (A) (A) (A) (A) (A) (A) (A) (A) (A) (A)
                 (A) (A) (A) (A) (A) (A) (A) (A) (A) (A) (A) (A)
                 (A) (A) (A) (A) (A) (A) (A) (A) (A) (A) (A) (A)
                 (A) (A) (A) (A) (A) (A) (A) (A) (A) (A) (A) (A)
                 (A) (A) (A) (A) (A) (A) (A) (A) (A) (A) (A) (A)
                 (A) (A) (A) (A) (A) (A) (A) (A) (A) (A) (A) (A)
                 (A) (A) (A) (A) (A) (A) (A) (A) (A) (A) (A) (A)
                 (A) (A) (A) (A) (A) (A) (A) (A) (A) (A) (A) (A)
                 (A) (A) (A) (A) (A) (A) (A) (A) (A) (A) (A) (A)
                 (A) (A) (A) (A) (A) (A) (A) (A) (A) (A) (A) (A)
                 (A) (A) (A) (A) (A) (A) (A) (A) (A) (A) (A) (A)
                 (A) (A) (A) (A) (A) (A) (A) (A) (A) (A) (A) (A)
                 (A) (A) (A) (A) (A) (A) (A) (A) (A) (A) (A) (A)
                 (A) (A) (A) (A) (A) (A) (A) (A) (A) (A) (A) (A)
                 (A) (A) (A) (A) (A) (A) (A) (A) (A) (A) (A) (A)
                 (A) (A) (A) (A) (A) (A) (A) (A) (A) (A) (A) (A)
                 (A) (A) (A) (A) (A) (A) (A) (A) (A) (A) (A) (A)
                 (A) (A) (A) (A) (A) (A) (A) (A) (A) (A) (A) (A)
                 (A) (A) (A) (A) (A) (A) (A) (A) (A) (A) (A) (A)
                 (A) (A) (A) (A) (A) (A) (A) (A) (A) (A) (A) (A)
                 (A) (A) (A) (A) (A) (A) (A) (A) (A) (A) (A) (A)
                 (A) (A) (A) (A) (A) (A) (A) (A) (A) (A) (A) (A)
                 (A) (A) (A) (A) (A) (A) (A) (A) (A) (A) (A) (A)
                 (A) (A) (A) (A) (A) (A) (A) (A) (A) (A) (A) (A)
                 (A) (A) (A) (A) (A) (A) (A) (A) (A) (A) (A) (A)
                 (A) (A) (A) (A) (A) (A) (A) (A) (A) (A) (A) (A)
                 (A) (A) (A) (A) (A) (A) (A) (A) (A) (A) (A) (A)
                 (A) (A) (A) (A) (A) (A) (A) (A) (A) (A) (A) (A)
                 (A) (A) (A) (A) (A) (A) (A) (A) (A) (A) (A) (A)
                 (A) (A) (A) (A) (A) (A) (A) (A) (A) (A) (A) (A)
                 (A) (A) (A) (A) (A) (A) (A) (A) (A) (A) (A) (A)
                 (A) (A) (A) (A) (A) (A) (A) (A) (A) (A) (A) (A)
                 (A) (A) (A) (A) (A) (A) (A) (A) (A) (A) (A) (A)
                 (A) (A) (A) (A) (A) (A) (A) (A) (A) (A) (A) (A)
                 (A) (A) (A) (A) (A) (A) (A) (A) (A) (A) (A) (A)
                 (A) (A) (A) (A) (A) (A) (A) (A) (A) (A) (A) (A)
                 (A) (A) (A) (A) (A) (A) (A) (A) (A) (A) (A) (A)
                 (A) (A) (A) (A) (A) (A) (A) (A) (A) (A) (A) (A)
                 (A) (A) (A) (A) (A) (A) (A) (A) (A) (A) (A) (A)
                 (A) (A) (A) (A) (A) (A) (A) (A) (A) (A) (A) (A)
                 (A) (A) (A) (A) (A) (A) (A) (A) (A) (A) (A) (A)
                 (A) (A) (A) (A) (A) (A) (A) (A) (A) (A) (A) (A)
                 (A) (A) (A) (A) (A) (A) (A) (A) (A) (A) (A) (A)
                 (A) (A) (A) (A) (A) (A) (A) (A) (A) (A) (A) (A)
                 (A) (A) (A) (A) (A) (A) (A) (A) (A) (A) (A) (A)
                 (A) (A) (A) (A) (A) (A) (A) (A) (A) (A) (A) (A)
                 (A) (A) (A) (A) (A) (A) (A) (A) (A) (A) (A) (A)
                 (A) (A) (A) (A) (A) (A) (A) (A) (A) (A) (A) (A)
                 (A) (A) (A) (A) (A) (A) (A) (A) (A) (A) (A) (A)
                 (A) (A) (A) (A) (A) (A) (A) (A) (A) (A) (A) (A)
                 (A) (A) (A) (A) (A) (A) (A) (A) (A) (A) (A) (A)
                 (A) (A) (A) (A) (A) (A) (A) (A) (A) (A) (A) (A)
                 (A) (A) (A) (A) (A) (A) (A) (A) (A) (A) (A) (A)
                 (A) (A) (A) (A) (A) (A) (A) (A) (A) (A) (A) (A)
                 (A) (A) (A) (A) (A) (A) (A) (A) (A) (A) (A) (A)
                 (A) (A) (A) (A) (A) (A) (A) (A) (A) (A) (A) (A)
                 (A) (A) (A) (A) (A) (A) (A) (A) (A) (A) (A) (A)
                 (A) (A) (A) (A) (A) (A) (A) (A) (A) (A) (A) (A)
                 (A) (A) (A) (A) (A) (A) (A) (A) (A) (A) (A) (A)
                 (A) (A) (A) (A) (A) (A) (A) (A) (A) (A) (A) (A)
                 (A) (A) (A) (A) (A) (A) (A) (A) (A) (A) (A) (A)
                 (A) (A) (A) (A) (A) (A) (A) (A) (A) (A) (A) (A)
                 (A) (A) (A) (A) (A) (A) (A) (A) (A) (A) (A) (A)
                 (A) (A) (A) (A) (A) (A) (A) (A) (A) (A) (A) (A)
                 (A) (A) (A) (A) (A) (A) (A) (A) (A) (A) (A) (A)
                 (A) (A) (A) (A) (A) (A) (A) (A) (A) (A) (A) (A)
                 (A) (A) (A) (A) (A) (A) (A) (A) (A) (A) (A) (A)
                 (A) (A) (A) (A) (A) (A) (A) (A) (A) (A) (A) (A)
                 (A) (A) (A) (A) (A) (A) (A) (A) (A) (A) (A) (A)
                 (A) (A) (A) (A) (A) (A) (A) (A) (A) (A) (A) (A)
                 (A) (A) (A) (A) (A) (A) (A) (A) (A) (A) (A) (A)
                 (A) (A) (A) (A) (A) (A) (A) (A) (A) (A) (A) (A)
                 (A) (A) (A) (A) (A) (A) (A) (A) (A) (A) (A) (A)
                 (A) (A) (A) (A) (A) (A) (A) (A) (A) (A) (A) (A)
                 (A) (A) (A) (A) (A) (A) (A) (A) (A) (A) (A) (A)
                 (A) (A) (A) (A) (A) (A) (A) (A) (A) (A) (A) (A)
                 (A) (A) (A) (A) (A) (A) (A) (A) (A) (A) (A) (A)
                 (A) (A) (A) (A) (A) (A) (A) (A) (A) (A) (A) (A)
                 (A) (A) (A) (A) (A) (A) (A) (A) (A) (A) (A) (A)
                 (A) (A) (A) (A) (A) (A) (A) (A) (A) (A) (A) (A)
                 (A) (A) (A) (A) (A) (A) (A) (A) (A) (A) (A) (A)
                 (A) (A) (A) (A) (A) (A) (A) (A) (A) (A) (A) (A)
                 (A) (A) (A) (A) (A) (A) (A) (A) (A) (A) (A) (A)
                 (A) (A) (A) (A) (A) (A) (A) (A) (A) (A) (A) (A)
                 (A) (A) (A) (A) (A) (A) (A) (A) (A) (A) (A) (A)
                 (A) (A) (A)
 The electronic state is 2-A.
 Alpha  occ. eigenvalues -- -101.08156 -19.02118 -19.01899 -19.00220 -14.21262
 Alpha  occ. eigenvalues --  -14.20565 -14.18202 -14.17798 -10.15389 -10.15348
 Alpha  occ. eigenvalues --  -10.14033 -10.12100 -10.11792 -10.11750 -10.11301
 Alpha  occ. eigenvalues --  -10.11232 -10.10680 -10.09944 -10.09637 -10.09450
 Alpha  occ. eigenvalues --  -10.08320 -10.08256 -10.08222 -10.07993 -10.07775
 Alpha  occ. eigenvalues --  -10.07378 -10.07298 -10.07105 -10.06647 -10.06237
 Alpha  occ. eigenvalues --  -10.05837 -10.05688 -10.05600 -10.05502 -10.05376
 Alpha  occ. eigenvalues --  -10.05328 -10.05278 -10.05271 -10.05258 -10.05250
 Alpha  occ. eigenvalues --  -10.05011 -10.04940 -10.04628 -10.04621 -10.04042
 Alpha  occ. eigenvalues --  -10.03918 -10.03795 -10.03505 -10.03449  -9.31105
 Alpha  occ. eigenvalues --   -7.01484  -7.01274  -7.01209  -4.00535  -3.98531
 Alpha  occ. eigenvalues --   -2.60111  -2.58964  -2.58173  -2.58010  -2.56844
 Alpha  occ. eigenvalues --   -2.56255  -1.07154  -1.06894  -1.03805  -0.95680
 Alpha  occ. eigenvalues --   -0.90779  -0.88187  -0.87308  -0.81872  -0.80980
 Alpha  occ. eigenvalues --   -0.80439  -0.79181  -0.79174  -0.78530  -0.76069
 Alpha  occ. eigenvalues --   -0.75640  -0.73651  -0.72640  -0.72392  -0.70830
 Alpha  occ. eigenvalues --   -0.70492  -0.70350  -0.68959  -0.68619  -0.66441
 Alpha  occ. eigenvalues --   -0.65581  -0.65439  -0.64859  -0.64578  -0.64470
 Alpha  occ. eigenvalues --   -0.64259  -0.63563  -0.61057  -0.60828  -0.60563
 Alpha  occ. eigenvalues --   -0.59189  -0.56949  -0.56638  -0.56327  -0.55864
 Alpha  occ. eigenvalues --   -0.55775  -0.54079  -0.52112  -0.51053  -0.50456
 Alpha  occ. eigenvalues --   -0.49951  -0.49651  -0.49279  -0.49157  -0.49017
 Alpha  occ. eigenvalues --   -0.47222  -0.46622  -0.46318  -0.46241  -0.45692
 Alpha  occ. eigenvalues --   -0.45088  -0.44086  -0.42909  -0.42822  -0.42743
 Alpha  occ. eigenvalues --   -0.42519  -0.42264  -0.42181  -0.41484  -0.41291
 Alpha  occ. eigenvalues --   -0.41074  -0.40896  -0.40561  -0.40405  -0.40300
 Alpha  occ. eigenvalues --   -0.39941  -0.39724  -0.39717  -0.39511  -0.38957
 Alpha  occ. eigenvalues --   -0.38361  -0.38023  -0.37755  -0.37547  -0.37395
 Alpha  occ. eigenvalues --   -0.37131  -0.36770  -0.36484  -0.36225  -0.35938
 Alpha  occ. eigenvalues --   -0.35592  -0.35286  -0.35095  -0.34776  -0.34519
 Alpha  occ. eigenvalues --   -0.34339  -0.34053  -0.33793  -0.33455  -0.33294
 Alpha  occ. eigenvalues --   -0.33157  -0.32950  -0.32873  -0.32524  -0.32264
 Alpha  occ. eigenvalues --   -0.32033  -0.31485  -0.31372  -0.30886  -0.30725
 Alpha  occ. eigenvalues --   -0.30686  -0.30437  -0.30110  -0.30050  -0.29639
 Alpha  occ. eigenvalues --   -0.29472  -0.29290  -0.29094  -0.28688  -0.28508
 Alpha  occ. eigenvalues --   -0.28441  -0.27600  -0.26291  -0.25872  -0.25560
 Alpha  occ. eigenvalues --   -0.24485  -0.24176  -0.23586  -0.23427  -0.23268
 Alpha  occ. eigenvalues --   -0.22918  -0.22541  -0.22022  -0.21416  -0.20875
 Alpha  occ. eigenvalues --   -0.20140  -0.19145  -0.18729  -0.18398  -0.18244
 Alpha  occ. eigenvalues --   -0.17476  -0.17096  -0.15837  -0.15199
 Alpha virt. eigenvalues --   -0.12255  -0.09240  -0.06592  -0.04800  -0.03631
 Alpha virt. eigenvalues --   -0.03447  -0.03321  -0.03034  -0.02691  -0.01009
 Alpha virt. eigenvalues --    0.00482   0.01752   0.02065   0.02178   0.02745
 Alpha virt. eigenvalues --    0.03058   0.03715   0.03795   0.04578   0.04756
 Alpha virt. eigenvalues --    0.05305   0.05538   0.05775   0.06059   0.06231
 Alpha virt. eigenvalues --    0.06568   0.06643   0.06992   0.07164   0.07671
 Alpha virt. eigenvalues --    0.07796   0.08044   0.08261   0.08368   0.08635
 Alpha virt. eigenvalues --    0.09105   0.09363   0.09429   0.09482   0.09613
 Alpha virt. eigenvalues --    0.09703   0.10068   0.10172   0.10334   0.10395
 Alpha virt. eigenvalues --    0.10702   0.10836   0.10975   0.11157   0.11413
 Alpha virt. eigenvalues --    0.11747   0.11835   0.12084   0.12273   0.12455
 Alpha virt. eigenvalues --    0.12518   0.12729   0.12900   0.13196   0.13434
 Alpha virt. eigenvalues --    0.13492   0.13782   0.13915   0.14151   0.14481
 Alpha virt. eigenvalues --    0.14508   0.14795   0.14910   0.15170   0.15333
 Alpha virt. eigenvalues --    0.15559   0.15652   0.15888   0.16074   0.16320
 Alpha virt. eigenvalues --    0.16521   0.16891   0.16929   0.17119   0.17299
 Alpha virt. eigenvalues --    0.17563   0.17715   0.17996   0.18168   0.18570
 Alpha virt. eigenvalues --    0.18720   0.18899   0.19041   0.19353   0.19502
 Alpha virt. eigenvalues --    0.19733   0.19793   0.20061   0.20672   0.20739
 Alpha virt. eigenvalues --    0.21043   0.21236   0.21532   0.21790   0.21823
 Alpha virt. eigenvalues --    0.21996   0.22240   0.22483   0.22606   0.22838
 Alpha virt. eigenvalues --    0.22865   0.23041   0.23446   0.23542   0.23783
 Alpha virt. eigenvalues --    0.23936   0.24187   0.24277   0.24530   0.24588
 Alpha virt. eigenvalues --    0.25120   0.25143   0.25426   0.25823   0.25896
 Alpha virt. eigenvalues --    0.26079   0.26217   0.26434   0.26641   0.26791
 Alpha virt. eigenvalues --    0.27039   0.27133   0.27353   0.27597   0.28050
 Alpha virt. eigenvalues --    0.28321   0.28455   0.28592   0.28658   0.28783
 Alpha virt. eigenvalues --    0.28855   0.29069   0.29452   0.29658   0.29915
 Alpha virt. eigenvalues --    0.30084   0.30300   0.30386   0.30553   0.30941
 Alpha virt. eigenvalues --    0.31161   0.31406   0.31501   0.31620   0.31993
 Alpha virt. eigenvalues --    0.32272   0.32373   0.32641   0.32765   0.32950
 Alpha virt. eigenvalues --    0.33229   0.33449   0.33554   0.33697   0.33968
 Alpha virt. eigenvalues --    0.34143   0.34243   0.34433   0.34466   0.34844
 Alpha virt. eigenvalues --    0.35009   0.35211   0.35518   0.35549   0.35764
 Alpha virt. eigenvalues --    0.35803   0.35969   0.36060   0.36204   0.36350
 Alpha virt. eigenvalues --    0.36705   0.36849   0.37083   0.37235   0.37357
 Alpha virt. eigenvalues --    0.37620   0.37968   0.38085   0.38235   0.38361
 Alpha virt. eigenvalues --    0.38605   0.38734   0.38941   0.39114   0.39199
 Alpha virt. eigenvalues --    0.39274   0.39296   0.39435   0.39685   0.39805
 Alpha virt. eigenvalues --    0.40025   0.40099   0.40265   0.40446   0.40528
 Alpha virt. eigenvalues --    0.40860   0.40914   0.41228   0.41333   0.41480
 Alpha virt. eigenvalues --    0.41586   0.41691   0.41937   0.42056   0.42224
 Alpha virt. eigenvalues --    0.42360   0.42671   0.42843   0.43078   0.43111
 Alpha virt. eigenvalues --    0.43402   0.43605   0.43701   0.43786   0.43915
 Alpha virt. eigenvalues --    0.44081   0.44275   0.44493   0.44708   0.44740
 Alpha virt. eigenvalues --    0.44887   0.44997   0.45187   0.45240   0.45607
 Alpha virt. eigenvalues --    0.45715   0.45810   0.45879   0.46022   0.46294
 Alpha virt. eigenvalues --    0.46467   0.46762   0.46893   0.46971   0.47174
 Alpha virt. eigenvalues --    0.47435   0.47573   0.47757   0.48018   0.48022
 Alpha virt. eigenvalues --    0.48129   0.48338   0.48818   0.48864   0.49069
 Alpha virt. eigenvalues --    0.49088   0.49388   0.49621   0.49883   0.50282
 Alpha virt. eigenvalues --    0.50374   0.50690   0.50983   0.51158   0.51456
 Alpha virt. eigenvalues --    0.51677   0.51813   0.52001   0.52231   0.52478
 Alpha virt. eigenvalues --    0.52653   0.53030   0.53183   0.53617   0.53887
 Alpha virt. eigenvalues --    0.54121   0.54531   0.54766   0.55026   0.55404
 Alpha virt. eigenvalues --    0.55492   0.55879   0.55961   0.56554   0.56812
 Alpha virt. eigenvalues --    0.56884   0.57341   0.57701   0.58253   0.58293
 Alpha virt. eigenvalues --    0.58858   0.59250   0.59413   0.59753   0.60094
 Alpha virt. eigenvalues --    0.60280   0.60777   0.60825   0.61084   0.61394
 Alpha virt. eigenvalues --    0.61502   0.61688   0.62014   0.62481   0.62648
 Alpha virt. eigenvalues --    0.62861   0.63045   0.63291   0.63463   0.63770
 Alpha virt. eigenvalues --    0.64313   0.64569   0.64837   0.64934   0.65340
 Alpha virt. eigenvalues --    0.65594   0.65759   0.66054   0.66409   0.66694
 Alpha virt. eigenvalues --    0.66904   0.67031   0.67184   0.67496   0.67664
 Alpha virt. eigenvalues --    0.67829   0.68305   0.68426   0.68789   0.68953
 Alpha virt. eigenvalues --    0.69053   0.69219   0.69869   0.69933   0.70383
 Alpha virt. eigenvalues --    0.70739   0.70840   0.71033   0.71195   0.71394
 Alpha virt. eigenvalues --    0.71672   0.72129   0.72563   0.72723   0.73178
 Alpha virt. eigenvalues --    0.73302   0.73464   0.73726   0.73862   0.74291
 Alpha virt. eigenvalues --    0.74483   0.74846   0.75068   0.75282   0.75442
 Alpha virt. eigenvalues --    0.76016   0.76145   0.76596   0.76763   0.77210
 Alpha virt. eigenvalues --    0.77304   0.77652   0.78096   0.78225   0.78571
 Alpha virt. eigenvalues --    0.78772   0.78848   0.78984   0.79364   0.79543
 Alpha virt. eigenvalues --    0.80081   0.80276   0.80499   0.80873   0.81042
 Alpha virt. eigenvalues --    0.81561   0.81770   0.81933   0.82479   0.82588
 Alpha virt. eigenvalues --    0.82812   0.83144   0.83697   0.84085   0.84127
 Alpha virt. eigenvalues --    0.84261   0.84738   0.84965   0.85165   0.85222
 Alpha virt. eigenvalues --    0.85570   0.85997   0.86288   0.86383   0.86516
 Alpha virt. eigenvalues --    0.86952   0.87027   0.87443   0.87622   0.88119
 Alpha virt. eigenvalues --    0.88394   0.88825   0.88975   0.89380   0.89459
 Alpha virt. eigenvalues --    0.89757   0.89853   0.90136   0.90518   0.90744
 Alpha virt. eigenvalues --    0.91421   0.91875   0.92071   0.92368   0.92839
 Alpha virt. eigenvalues --    0.93411   0.93594   0.93712   0.94000   0.94569
 Alpha virt. eigenvalues --    0.94838   0.95175   0.95785   0.96117   0.96937
 Alpha virt. eigenvalues --    0.97133   0.97367   0.97911   0.98009   0.98472
 Alpha virt. eigenvalues --    0.98781   0.98884   0.99193   0.99510   0.99812
 Alpha virt. eigenvalues --    1.00051   1.01278   1.01364   1.02035   1.02424
 Alpha virt. eigenvalues --    1.02749   1.02848   1.03095   1.03454   1.03774
 Alpha virt. eigenvalues --    1.04131   1.04441   1.04480   1.05052   1.05236
 Alpha virt. eigenvalues --    1.05596   1.05863   1.06316   1.06407   1.06739
 Alpha virt. eigenvalues --    1.07278   1.07657   1.07911   1.08162   1.08417
 Alpha virt. eigenvalues --    1.08618   1.09058   1.09300   1.10002   1.10146
 Alpha virt. eigenvalues --    1.10277   1.10836   1.11064   1.11163   1.11736
 Alpha virt. eigenvalues --    1.12125   1.12246   1.12435   1.12958   1.13284
 Alpha virt. eigenvalues --    1.14038   1.14132   1.14533   1.14841   1.15135
 Alpha virt. eigenvalues --    1.15257   1.15553   1.15911   1.16205   1.16357
 Alpha virt. eigenvalues --    1.16786   1.17065   1.17461   1.17832   1.18063
 Alpha virt. eigenvalues --    1.18271   1.18481   1.19231   1.19402   1.19859
 Alpha virt. eigenvalues --    1.20057   1.20400   1.20666   1.21040   1.21285
 Alpha virt. eigenvalues --    1.21517   1.22130   1.22257   1.22856   1.23142
 Alpha virt. eigenvalues --    1.23452   1.23527   1.23819   1.24004   1.24336
 Alpha virt. eigenvalues --    1.24903   1.24998   1.25197   1.25479   1.25727
 Alpha virt. eigenvalues --    1.25979   1.26315   1.27044   1.27610   1.27890
 Alpha virt. eigenvalues --    1.28270   1.28360   1.28843   1.28965   1.29218
 Alpha virt. eigenvalues --    1.29566   1.30438   1.30754   1.30922   1.31258
 Alpha virt. eigenvalues --    1.31703   1.31884   1.32397   1.33246   1.33333
 Alpha virt. eigenvalues --    1.33410   1.33798   1.34274   1.34408   1.34697
 Alpha virt. eigenvalues --    1.35047   1.35485   1.35495   1.36277   1.36388
 Alpha virt. eigenvalues --    1.36826   1.37280   1.37591   1.38229   1.38437
 Alpha virt. eigenvalues --    1.38658   1.39025   1.39487   1.39725   1.40126
 Alpha virt. eigenvalues --    1.40837   1.41478   1.41530   1.42151   1.42743
 Alpha virt. eigenvalues --    1.43101   1.43187   1.43584   1.43791   1.44903
 Alpha virt. eigenvalues --    1.45065   1.45461   1.45592   1.46014   1.46341
 Alpha virt. eigenvalues --    1.46532   1.46873   1.47179   1.47349   1.48022
 Alpha virt. eigenvalues --    1.48237   1.48437   1.48666   1.49038   1.49252
 Alpha virt. eigenvalues --    1.49721   1.49817   1.50152   1.50538   1.50789
 Alpha virt. eigenvalues --    1.51237   1.51629   1.51867   1.52084   1.52466
 Alpha virt. eigenvalues --    1.52951   1.53626   1.53721   1.54089   1.54219
 Alpha virt. eigenvalues --    1.54703   1.54720   1.55033   1.55511   1.55640
 Alpha virt. eigenvalues --    1.56233   1.56650   1.56946   1.56983   1.57455
 Alpha virt. eigenvalues --    1.57594   1.58068   1.58246   1.58448   1.58654
 Alpha virt. eigenvalues --    1.58745   1.58770   1.59223   1.59396   1.59738
 Alpha virt. eigenvalues --    1.59829   1.59972   1.60604   1.61062   1.61430
 Alpha virt. eigenvalues --    1.61470   1.61747   1.61947   1.62353   1.62564
 Alpha virt. eigenvalues --    1.62730   1.62962   1.63266   1.63568   1.63705
 Alpha virt. eigenvalues --    1.64469   1.64624   1.64957   1.65339   1.65631
 Alpha virt. eigenvalues --    1.65769   1.66295   1.66500   1.66838   1.67172
 Alpha virt. eigenvalues --    1.67427   1.67738   1.68018   1.68251   1.68939
 Alpha virt. eigenvalues --    1.69391   1.69737   1.69838   1.70314   1.70545
 Alpha virt. eigenvalues --    1.70892   1.71185   1.71320   1.71960   1.72283
 Alpha virt. eigenvalues --    1.72346   1.72928   1.73145   1.73936   1.73955
 Alpha virt. eigenvalues --    1.74419   1.74545   1.74875   1.75354   1.75742
 Alpha virt. eigenvalues --    1.76116   1.76736   1.76881   1.77168   1.77670
 Alpha virt. eigenvalues --    1.78194   1.78480   1.78514   1.79019   1.79238
 Alpha virt. eigenvalues --    1.80138   1.80372   1.80629   1.81290   1.81614
 Alpha virt. eigenvalues --    1.81975   1.82545   1.83058   1.83431   1.83669
 Alpha virt. eigenvalues --    1.84004   1.84099   1.84410   1.84599   1.85578
 Alpha virt. eigenvalues --    1.85848   1.86241   1.86348   1.86780   1.86915
 Alpha virt. eigenvalues --    1.87538   1.88282   1.88505   1.89055   1.89310
 Alpha virt. eigenvalues --    1.89783   1.90264   1.90472   1.90899   1.91339
 Alpha virt. eigenvalues --    1.91471   1.91769   1.92006   1.92335   1.92663
 Alpha virt. eigenvalues --    1.92885   1.93313   1.93874   1.94087   1.94582
 Alpha virt. eigenvalues --    1.94734   1.94988   1.95326   1.95794   1.96319
 Alpha virt. eigenvalues --    1.96476   1.96980   1.97088   1.97521   1.97839
 Alpha virt. eigenvalues --    1.98263   1.98537   1.99099   1.99158   1.99743
 Alpha virt. eigenvalues --    2.00303   2.00695   2.00801   2.00869   2.01584
 Alpha virt. eigenvalues --    2.01806   2.02285   2.03180   2.03285   2.03723
 Alpha virt. eigenvalues --    2.04058   2.04325   2.04464   2.05004   2.05164
 Alpha virt. eigenvalues --    2.05785   2.05973   2.06343   2.06609   2.06839
 Alpha virt. eigenvalues --    2.07284   2.07569   2.07914   2.08830   2.08905
 Alpha virt. eigenvalues --    2.09217   2.09329   2.09911   2.10167   2.10771
 Alpha virt. eigenvalues --    2.10840   2.11143   2.12100   2.12314   2.12439
 Alpha virt. eigenvalues --    2.12709   2.12841   2.13344   2.13613   2.14536
 Alpha virt. eigenvalues --    2.14635   2.15057   2.15252   2.15773   2.15864
 Alpha virt. eigenvalues --    2.16324   2.16918   2.17188   2.17439   2.17621
 Alpha virt. eigenvalues --    2.18033   2.18596   2.19179   2.19571   2.19861
 Alpha virt. eigenvalues --    2.20460   2.20882   2.21240   2.21475   2.21597
 Alpha virt. eigenvalues --    2.21810   2.22294   2.22745   2.23018   2.23470
 Alpha virt. eigenvalues --    2.24024   2.24125   2.24394   2.25001   2.25135
 Alpha virt. eigenvalues --    2.25351   2.25595   2.25772   2.26251   2.26358
 Alpha virt. eigenvalues --    2.26752   2.27321   2.27690   2.27935   2.28111
 Alpha virt. eigenvalues --    2.28659   2.28957   2.29336   2.29748   2.30101
 Alpha virt. eigenvalues --    2.30264   2.30524   2.30930   2.31130   2.31381
 Alpha virt. eigenvalues --    2.32090   2.32469   2.32837   2.33246   2.33672
 Alpha virt. eigenvalues --    2.33854   2.34096   2.34460   2.35069   2.35150
 Alpha virt. eigenvalues --    2.35482   2.35673   2.36325   2.36612   2.36794
 Alpha virt. eigenvalues --    2.37255   2.37528   2.37997   2.38434   2.38594
 Alpha virt. eigenvalues --    2.39065   2.39309   2.39394   2.40233   2.40391
 Alpha virt. eigenvalues --    2.40738   2.40925   2.41447   2.41730   2.41873
 Alpha virt. eigenvalues --    2.42703   2.42905   2.43396   2.43772   2.44239
 Alpha virt. eigenvalues --    2.44313   2.44774   2.44903   2.45705   2.45912
 Alpha virt. eigenvalues --    2.46093   2.46584   2.47225   2.47579   2.47937
 Alpha virt. eigenvalues --    2.48512   2.48823   2.49282   2.49579   2.50323
 Alpha virt. eigenvalues --    2.50500   2.50821   2.51027   2.51421   2.51954
 Alpha virt. eigenvalues --    2.52490   2.53239   2.53587   2.53810   2.54311
 Alpha virt. eigenvalues --    2.54753   2.54886   2.55150   2.55344   2.55497
 Alpha virt. eigenvalues --    2.55664   2.56362   2.56689   2.56817   2.57759
 Alpha virt. eigenvalues --    2.57974   2.58252   2.58356   2.58539   2.58770
 Alpha virt. eigenvalues --    2.59208   2.59352   2.59530   2.60035   2.60285
 Alpha virt. eigenvalues --    2.60708   2.60855   2.61061   2.61185   2.61605
 Alpha virt. eigenvalues --    2.61994   2.62139   2.62581   2.62757   2.63083
 Alpha virt. eigenvalues --    2.63415   2.63627   2.63930   2.64149   2.64437
 Alpha virt. eigenvalues --    2.64695   2.65262   2.65701   2.65883   2.66046
 Alpha virt. eigenvalues --    2.66265   2.66459   2.66640   2.67340   2.67749
 Alpha virt. eigenvalues --    2.68036   2.68377   2.68619   2.68975   2.69083
 Alpha virt. eigenvalues --    2.69397   2.69962   2.70061   2.70383   2.70644
 Alpha virt. eigenvalues --    2.70988   2.71097   2.71575   2.71716   2.71782
 Alpha virt. eigenvalues --    2.72216   2.72907   2.72976   2.73164   2.73670
 Alpha virt. eigenvalues --    2.73859   2.74023   2.74289   2.74514   2.74844
 Alpha virt. eigenvalues --    2.75327   2.75928   2.76075   2.76310   2.76559
 Alpha virt. eigenvalues --    2.76788   2.77419   2.77627   2.78176   2.78445
 Alpha virt. eigenvalues --    2.78716   2.78809   2.79127   2.79303   2.79575
 Alpha virt. eigenvalues --    2.80110   2.80480   2.80547   2.81196   2.81592
 Alpha virt. eigenvalues --    2.81848   2.82227   2.82834   2.83584   2.83700
 Alpha virt. eigenvalues --    2.83868   2.84152   2.84280   2.84755   2.85288
 Alpha virt. eigenvalues --    2.85348   2.85796   2.86207   2.86592   2.86683
 Alpha virt. eigenvalues --    2.87078   2.87368   2.87481   2.87740   2.87889
 Alpha virt. eigenvalues --    2.88204   2.88423   2.88696   2.89212   2.89480
 Alpha virt. eigenvalues --    2.89710   2.89951   2.90472   2.90744   2.91135
 Alpha virt. eigenvalues --    2.91321   2.91557   2.91713   2.91850   2.92162
 Alpha virt. eigenvalues --    2.92517   2.92558   2.92937   2.93229   2.93727
 Alpha virt. eigenvalues --    2.93758   2.94351   2.94680   2.94699   2.94820
 Alpha virt. eigenvalues --    2.95590   2.95930   2.96581   2.96822   2.97378
 Alpha virt. eigenvalues --    2.98009   2.98269   2.98797   2.99305   2.99365
 Alpha virt. eigenvalues --    2.99853   3.00333   3.00847   3.01023   3.01307
 Alpha virt. eigenvalues --    3.01630   3.02297   3.02564   3.02869   3.03112
 Alpha virt. eigenvalues --    3.03479   3.03697   3.04126   3.04416   3.04738
 Alpha virt. eigenvalues --    3.05411   3.05918   3.05977   3.06471   3.06887
 Alpha virt. eigenvalues --    3.07060   3.07547   3.07804   3.08563   3.08989
 Alpha virt. eigenvalues --    3.09320   3.09529   3.09755   3.10076   3.10447
 Alpha virt. eigenvalues --    3.10760   3.11504   3.11707   3.12200   3.12471
 Alpha virt. eigenvalues --    3.12683   3.13021   3.13170   3.13453   3.14056
 Alpha virt. eigenvalues --    3.14344   3.14488   3.14658   3.15284   3.15685
 Alpha virt. eigenvalues --    3.16143   3.16251   3.16355   3.16643   3.16806
 Alpha virt. eigenvalues --    3.17207   3.17407   3.18057   3.18198   3.18503
 Alpha virt. eigenvalues --    3.18799   3.19296   3.19781   3.20121   3.20306
 Alpha virt. eigenvalues --    3.20612   3.21041   3.21468   3.21838   3.22145
 Alpha virt. eigenvalues --    3.22250   3.22729   3.23055   3.23123   3.23523
 Alpha virt. eigenvalues --    3.23650   3.23917   3.24458   3.24472   3.24918
 Alpha virt. eigenvalues --    3.25053   3.25267   3.25526   3.25991   3.26208
 Alpha virt. eigenvalues --    3.26388   3.26673   3.27069   3.27241   3.27434
 Alpha virt. eigenvalues --    3.27579   3.27678   3.27980   3.28454   3.28714
 Alpha virt. eigenvalues --    3.29028   3.29260   3.29638   3.29984   3.30218
 Alpha virt. eigenvalues --    3.30470   3.31140   3.31305   3.31726   3.31974
 Alpha virt. eigenvalues --    3.32388   3.32539   3.32629   3.33104   3.33245
 Alpha virt. eigenvalues --    3.33460   3.33806   3.33917   3.33976   3.34388
 Alpha virt. eigenvalues --    3.34568   3.34846   3.35053   3.35648   3.35857
 Alpha virt. eigenvalues --    3.35974   3.36634   3.36948   3.37008   3.37310
 Alpha virt. eigenvalues --    3.37592   3.37759   3.37944   3.38485   3.38755
 Alpha virt. eigenvalues --    3.38910   3.38956   3.39290   3.39684   3.40005
 Alpha virt. eigenvalues --    3.40188   3.40353   3.40508   3.40777   3.41112
 Alpha virt. eigenvalues --    3.41221   3.41587   3.41879   3.42113   3.42197
 Alpha virt. eigenvalues --    3.42316   3.42547   3.42869   3.43256   3.43410
 Alpha virt. eigenvalues --    3.43590   3.44221   3.44309   3.44485   3.44868
 Alpha virt. eigenvalues --    3.45086   3.45436   3.45610   3.45649   3.46297
 Alpha virt. eigenvalues --    3.46721   3.46927   3.47051   3.47261   3.47474
 Alpha virt. eigenvalues --    3.47743   3.47911   3.48329   3.48556   3.48820
 Alpha virt. eigenvalues --    3.49138   3.49266   3.49774   3.50359   3.50566
 Alpha virt. eigenvalues --    3.50675   3.51148   3.51264   3.51830   3.52174
 Alpha virt. eigenvalues --    3.52696   3.52932   3.53150   3.53328   3.53809
 Alpha virt. eigenvalues --    3.54075   3.54341   3.54703   3.55211   3.55456
 Alpha virt. eigenvalues --    3.55528   3.55663   3.55852   3.56497   3.56758
 Alpha virt. eigenvalues --    3.56916   3.57009   3.57242   3.57558   3.58328
 Alpha virt. eigenvalues --    3.58383   3.58731   3.59000   3.59475   3.59818
 Alpha virt. eigenvalues --    3.60060   3.60181   3.60567   3.61134   3.61460
 Alpha virt. eigenvalues --    3.62013   3.62452   3.62748   3.62893   3.63296
 Alpha virt. eigenvalues --    3.64206   3.64721   3.65249   3.65619   3.65883
 Alpha virt. eigenvalues --    3.66147   3.66676   3.67187   3.67356   3.67513
 Alpha virt. eigenvalues --    3.68475   3.68742   3.69009   3.69465   3.69861
 Alpha virt. eigenvalues --    3.70183   3.70543   3.70830   3.71093   3.71389
 Alpha virt. eigenvalues --    3.71791   3.72187   3.72527   3.73063   3.73528
 Alpha virt. eigenvalues --    3.73927   3.74350   3.74741   3.75658   3.76006
 Alpha virt. eigenvalues --    3.76262   3.76540   3.77346   3.77575   3.78415
 Alpha virt. eigenvalues --    3.78913   3.79324   3.79573   3.80598   3.80923
 Alpha virt. eigenvalues --    3.81248   3.81953   3.82307   3.82384   3.82619
 Alpha virt. eigenvalues --    3.83275   3.83678   3.84117   3.84299   3.84826
 Alpha virt. eigenvalues --    3.85281   3.85530   3.86157   3.87279   3.87682
 Alpha virt. eigenvalues --    3.87887   3.88444   3.89093   3.89455   3.89792
 Alpha virt. eigenvalues --    3.90518   3.90929   3.91758   3.92004   3.93013
 Alpha virt. eigenvalues --    3.93313   3.93685   3.94620   3.94772   3.95048
 Alpha virt. eigenvalues --    3.95775   3.96259   3.96763   3.97259   3.97703
 Alpha virt. eigenvalues --    3.98849   3.99480   3.99916   4.00153   4.00690
 Alpha virt. eigenvalues --    4.01089   4.02349   4.02576   4.03597   4.03883
 Alpha virt. eigenvalues --    4.04628   4.05162   4.05545   4.05985   4.06257
 Alpha virt. eigenvalues --    4.06404   4.07074   4.07445   4.08008   4.08530
 Alpha virt. eigenvalues --    4.08786   4.09422   4.09708   4.11357   4.11870
 Alpha virt. eigenvalues --    4.12225   4.12652   4.13166   4.13440   4.13892
 Alpha virt. eigenvalues --    4.14032   4.14430   4.14913   4.15053   4.15385
 Alpha virt. eigenvalues --    4.15814   4.16289   4.16410   4.16978   4.17062
 Alpha virt. eigenvalues --    4.17512   4.17783   4.18124   4.18589   4.18792
 Alpha virt. eigenvalues --    4.19388   4.19627   4.19845   4.20543   4.21186
 Alpha virt. eigenvalues --    4.21473   4.22118   4.22503   4.22760   4.23070
 Alpha virt. eigenvalues --    4.23727   4.23974   4.24241   4.24790   4.24864
 Alpha virt. eigenvalues --    4.25710   4.26359   4.26872   4.26951   4.27741
 Alpha virt. eigenvalues --    4.27937   4.28408   4.29054   4.29241   4.29543
 Alpha virt. eigenvalues --    4.29973   4.30557   4.31030   4.31252   4.31565
 Alpha virt. eigenvalues --    4.32477   4.33341   4.33506   4.33783   4.34121
 Alpha virt. eigenvalues --    4.34872   4.35476   4.35649   4.36015   4.36269
 Alpha virt. eigenvalues --    4.36856   4.37325   4.37754   4.38183   4.38427
 Alpha virt. eigenvalues --    4.39048   4.39509   4.39918   4.40250   4.40824
 Alpha virt. eigenvalues --    4.41062   4.41747   4.42262   4.43101   4.43543
 Alpha virt. eigenvalues --    4.44448   4.44536   4.44872   4.45105   4.45653
 Alpha virt. eigenvalues --    4.46705   4.47023   4.47274   4.48665   4.49118
 Alpha virt. eigenvalues --    4.49315   4.50128   4.50393   4.51246   4.51289
 Alpha virt. eigenvalues --    4.52043   4.52748   4.53632   4.53792   4.54753
 Alpha virt. eigenvalues --    4.55456   4.56366   4.56610   4.57754   4.59375
 Alpha virt. eigenvalues --    4.60078   4.60182   4.61086   4.61548   4.62182
 Alpha virt. eigenvalues --    4.64345   4.65101   4.65781   4.67550   4.68396
 Alpha virt. eigenvalues --    4.69823   4.70146   4.71184   4.72285   4.73425
 Alpha virt. eigenvalues --    4.74488   4.74820   4.75882   4.76513   4.76663
 Alpha virt. eigenvalues --    4.77157   4.78183   4.79189   4.79895   4.81395
 Alpha virt. eigenvalues --    4.81857   4.83337   4.83400   4.84121   4.85397
 Alpha virt. eigenvalues --    4.85992   4.86277   4.87674   4.88121   4.88798
 Alpha virt. eigenvalues --    4.90030   4.91049   4.91792   4.93360   4.95079
 Alpha virt. eigenvalues --    4.95376   4.96867   4.97553   4.98244   4.98877
 Alpha virt. eigenvalues --    5.01283   5.03297   5.04122   5.04573   5.04968
 Alpha virt. eigenvalues --    5.06003   5.06390   5.06749   5.07520   5.09202
 Alpha virt. eigenvalues --    5.09355   5.10638   5.11434   5.11972   5.12449
[...]
              Bcc     0.0027     0.362     0.129     0.121  0.7501 -0.0966  0.6543
 
              Baa    -0.0007    -0.392    -0.140    -0.131 -0.4209  0.3529  0.8356
    35 H(1)   Bbb    -0.0005    -0.292    -0.104    -0.097  0.5266  0.8452 -0.0917
              Bcc     0.0013     0.684     0.244     0.228  0.7386 -0.4015  0.5416
 
              Baa    -0.0008    -0.453    -0.162    -0.151 -0.2449  0.6201  0.7453
    36 H(1)   Bbb    -0.0007    -0.379    -0.135    -0.127  0.3210  0.7772 -0.5412
              Bcc     0.0016     0.832     0.297     0.278  0.9149 -0.1067  0.3894
 
              Baa    -0.0032    -0.434    -0.155    -0.145 -0.4899 -0.4493  0.7471
    37 C(13)  Bbb    -0.0025    -0.330    -0.118    -0.110  0.3242  0.7016  0.6345
              Bcc     0.0057     0.764     0.273     0.255  0.8093 -0.5530  0.1981
 
              Baa    -0.0019    -0.990    -0.353    -0.330 -0.1272  0.3690  0.9207
    38 H(1)   Bbb    -0.0015    -0.816    -0.291    -0.272  0.7579  0.6350 -0.1498
              Bcc     0.0034     1.805     0.644     0.602 -0.6399  0.6787 -0.3604
 
              Baa    -0.0048    -0.646    -0.231    -0.216  0.1448  0.9068 -0.3958
    39 C(13)  Bbb    -0.0045    -0.602    -0.215    -0.201 -0.2737  0.4211  0.8647
              Bcc     0.0093     1.248     0.445     0.416  0.9509 -0.0169  0.3091
 
              Baa    -0.0030    -1.602    -0.572    -0.535 -0.0819  0.8819  0.4642
    40 H(1)   Bbb    -0.0026    -1.379    -0.492    -0.460 -0.4591 -0.4468  0.7679
              Bcc     0.0056     2.981     1.064     0.994  0.8846 -0.1502  0.4415
 
              Baa    -0.0075     0.541     0.193     0.180 -0.5974 -0.1612  0.7856
    41 O(17)  Bbb    -0.0012     0.086     0.031     0.029 -0.5972  0.7432 -0.3016
              Bcc     0.0087    -0.627    -0.224    -0.209  0.5352  0.6493  0.5403
 
              Baa    -0.0423     3.058     1.091     1.020  0.3727  0.7250 -0.5792
    42 O(17)  Bbb     0.0102    -0.740    -0.264    -0.247  0.7118  0.1772  0.6797
              Bcc     0.0320    -2.318    -0.827    -0.773 -0.5954  0.6655  0.4500
 
              Baa    -1.1175    53.372    19.044    17.803  0.1933  0.9082 -0.3712
    43 Ni(61) Bbb     0.3367   -16.083    -5.739    -5.365 -0.0624  0.3889  0.9192
              Bcc     0.7807   -37.289   -13.306   -12.438  0.9792 -0.1545  0.1318
 
              Baa    -0.1000    -5.235    -1.868    -1.746 -0.2718  0.4398  0.8560
    44 Cl(35) Bbb    -0.0632    -3.306    -1.180    -1.103  0.8149  0.5783 -0.0384
              Bcc     0.1632     8.541     3.048     2.849 -0.5119  0.6871 -0.5156
 
              Baa    -0.0020    -0.264    -0.094    -0.088 -0.0763  0.0908  0.9929
    45 C(13)  Bbb    -0.0008    -0.110    -0.039    -0.037  0.4890  0.8713 -0.0421
              Bcc     0.0028     0.374     0.134     0.125  0.8689 -0.4823  0.1109
 
              Baa    -0.0014    -0.191    -0.068    -0.064  0.0382  0.7842 -0.6193
    46 C(13)  Bbb    -0.0010    -0.132    -0.047    -0.044  0.2501  0.5926  0.7657
              Bcc     0.0024     0.322     0.115     0.108  0.9675 -0.1841 -0.1734
 
              Baa    -0.0021    -1.137    -0.406    -0.379 -0.0709  0.8467 -0.5273
    47 H(1)   Bbb    -0.0019    -1.001    -0.357    -0.334  0.2487  0.5269  0.8127
              Bcc     0.0040     2.138     0.763     0.713  0.9660 -0.0735 -0.2479
 
              Baa    -0.0008    -0.453    -0.162    -0.151  0.1037  0.9671 -0.2321
    48 H(1)   Bbb    -0.0007    -0.397    -0.142    -0.132  0.0351  0.2297  0.9726
              Bcc     0.0016     0.850     0.303     0.283  0.9940 -0.1090 -0.0101
 
              Baa    -0.0008    -0.409    -0.146    -0.136  0.1056  0.9355 -0.3372
    49 H(1)   Bbb    -0.0007    -0.364    -0.130    -0.121  0.3445  0.2837  0.8949
              Bcc     0.0014     0.773     0.276     0.258  0.9328 -0.2107 -0.2923
 
              Baa    -0.0006    -0.083    -0.030    -0.028  0.4884  0.7876 -0.3758
    50 C(13)  Bbb    -0.0005    -0.070    -0.025    -0.023  0.1638  0.3403  0.9260
              Bcc     0.0011     0.154     0.055     0.051  0.8571 -0.5137  0.0372
 
              Baa    -0.0005    -0.289    -0.103    -0.097 -0.2365 -0.0761  0.9686
    51 H(1)   Bbb    -0.0005    -0.255    -0.091    -0.085  0.6173  0.7581  0.2103
              Bcc     0.0010     0.544     0.194     0.181  0.7503 -0.6477  0.1323
 
              Baa    -0.0004    -0.231    -0.083    -0.077 -0.2235 -0.5138  0.8283
    52 H(1)   Bbb    -0.0004    -0.221    -0.079    -0.074  0.4803  0.6814  0.5522
              Bcc     0.0008     0.452     0.161     0.151  0.8481 -0.5213 -0.0945
 
              Baa    -0.0004    -0.239    -0.085    -0.080 -0.3257 -0.4137  0.8502
    53 H(1)   Bbb    -0.0004    -0.232    -0.083    -0.077  0.3120  0.8018  0.5097
              Bcc     0.0009     0.471     0.168     0.157  0.8925 -0.4312  0.1321
 
              Baa    -0.0018    -0.238    -0.085    -0.079  0.1907 -0.2021  0.9606
    54 C(13)  Bbb    -0.0015    -0.206    -0.074    -0.069  0.6892  0.7244  0.0156
              Bcc     0.0033     0.444     0.158     0.148  0.6991 -0.6591 -0.2774
 
              Baa    -0.0032    -1.720    -0.614    -0.574  0.0103 -0.5613  0.8275
    55 H(1)   Bbb    -0.0028    -1.487    -0.531    -0.496  0.7583  0.5439  0.3594
              Bcc     0.0060     3.207     1.144     1.070  0.6518 -0.6238 -0.4313
 
              Baa    -0.0009    -0.499    -0.178    -0.166  0.0678 -0.5031  0.8616
    56 H(1)   Bbb    -0.0009    -0.469    -0.167    -0.156  0.7057  0.6346  0.3150
              Bcc     0.0018     0.968     0.345     0.323  0.7052 -0.5866 -0.3981
 
              Baa    -0.0015    -0.778    -0.278    -0.260  0.1483 -0.0961  0.9843
    57 H(1)   Bbb    -0.0012    -0.643    -0.229    -0.214  0.7976  0.6000 -0.0616
              Bcc     0.0027     1.421     0.507     0.474 -0.5846  0.7942  0.1656
 
              Baa    -0.0024    -0.319    -0.114    -0.106 -0.3025  0.8680  0.3939
    58 C(13)  Bbb    -0.0017    -0.230    -0.082    -0.077 -0.0079 -0.4155  0.9095
              Bcc     0.0041     0.549     0.196     0.183  0.9531  0.2720  0.1325
 
              Baa    -0.0017    -0.227    -0.081    -0.076  0.0016  0.4524  0.8918
    59 C(13)  Bbb    -0.0013    -0.181    -0.064    -0.060 -0.4676  0.7886 -0.3992
              Bcc     0.0030     0.407     0.145     0.136  0.8839  0.4164 -0.2128
 
              Baa    -0.0028    -1.499    -0.535    -0.500 -0.0289  0.6427  0.7656
    60 H(1)   Bbb    -0.0021    -1.110    -0.396    -0.370  0.6050 -0.5984  0.5252
              Bcc     0.0049     2.609     0.931     0.870  0.7957  0.4784 -0.3715
 
              Baa    -0.0011    -0.607    -0.217    -0.203  0.0766  0.6757  0.7332
    61 H(1)   Bbb    -0.0008    -0.452    -0.161    -0.151 -0.3905  0.6970 -0.6015
              Bcc     0.0020     1.059     0.378     0.353  0.9174  0.2402 -0.3172
 
              Baa    -0.0010    -0.534    -0.191    -0.178 -0.1339  0.4448  0.8856
    62 H(1)   Bbb    -0.0009    -0.458    -0.164    -0.153 -0.5434  0.7144 -0.4410
              Bcc     0.0019     0.993     0.354     0.331  0.8288  0.5402 -0.1461
 
              Baa    -0.0024    -0.328    -0.117    -0.109  0.0438 -0.5608  0.8268
    63 C(13)  Bbb    -0.0024    -0.316    -0.113    -0.105  0.7169 -0.5587 -0.4169
              Bcc     0.0048     0.644     0.230     0.215  0.6958  0.6110  0.3776
 
              Baa    -0.0022    -1.200    -0.428    -0.400 -0.4040 -0.4964  0.7684
    64 H(1)   Bbb    -0.0021    -1.112    -0.397    -0.371 -0.6306  0.7596  0.1591
              Bcc     0.0043     2.312     0.825     0.771  0.6626  0.4203  0.6199
 
              Baa    -0.0056    -2.986    -1.065    -0.996 -0.3155 -0.1496  0.9371
    65 H(1)   Bbb    -0.0047    -2.488    -0.888    -0.830  0.7286 -0.6709  0.1382
              Bcc     0.0103     5.473     1.953     1.826  0.6080  0.7263  0.3206
 
              Baa    -0.0014    -0.729    -0.260    -0.243 -0.3946 -0.0658  0.9165
    66 H(1)   Bbb    -0.0013    -0.681    -0.243    -0.227 -0.6223  0.7531 -0.2138
              Bcc     0.0026     1.410     0.503     0.470  0.6761  0.6547  0.3381
 
              Baa    -0.0009    -0.118    -0.042    -0.039 -0.2107  0.1167  0.9706
    67 C(13)  Bbb    -0.0007    -0.091    -0.032    -0.030 -0.2223  0.9611 -0.1638
              Bcc     0.0016     0.208     0.074     0.069  0.9519  0.2503  0.1765
 
              Baa    -0.0007    -0.400    -0.143    -0.133 -0.3122 -0.4134  0.8553
    68 H(1)   Bbb    -0.0007    -0.382    -0.136    -0.127 -0.3038  0.8965  0.3224
              Bcc     0.0015     0.782     0.279     0.261  0.9001  0.1592  0.4055
 
              Baa    -0.0006    -0.310    -0.111    -0.104 -0.3281  0.2227  0.9180
    69 H(1)   Bbb    -0.0006    -0.299    -0.107    -0.100 -0.2965  0.8984 -0.3239
              Bcc     0.0011     0.610     0.218     0.203  0.8969  0.3785  0.2288
 
              Baa    -0.0006    -0.335    -0.119    -0.112 -0.1701  0.4391  0.8822
    70 H(1)   Bbb    -0.0006    -0.295    -0.105    -0.098 -0.0867  0.8851 -0.4572
              Bcc     0.0012     0.630     0.225     0.210  0.9816  0.1543  0.1125
 
              Baa    -0.0070    -0.942    -0.336    -0.314  0.5832 -0.2900  0.7588
    71 C(13)  Bbb    -0.0013    -0.170    -0.061    -0.057  0.7493 -0.1688 -0.6403
              Bcc     0.0083     1.112     0.397     0.371  0.3138  0.9420  0.1189
 
              Baa    -0.0112    -1.507    -0.538    -0.503  0.1231  0.9695  0.2117
    72 C(13)  Bbb     0.0048     0.649     0.232     0.217  0.6946 -0.2365  0.6794
              Bcc     0.0064     0.858     0.306     0.286  0.7088  0.0634 -0.7026
 
              Baa    -0.0107    -1.440    -0.514    -0.480 -0.2961  0.9037 -0.3093
    73 C(13)  Bbb     0.0014     0.182     0.065     0.061 -0.2029  0.2569  0.9449
              Bcc     0.0094     1.259     0.449     0.420  0.9334  0.3425  0.1073
 
              Baa    -0.0026    -0.342    -0.122    -0.114  0.6139 -0.1108  0.7816
    74 C(13)  Bbb    -0.0010    -0.128    -0.046    -0.043  0.7883  0.1382 -0.5996
              Bcc     0.0035     0.470     0.168     0.157 -0.0415  0.9842  0.1722
 
              Baa    -0.0009    -0.504    -0.180    -0.168  0.5261 -0.3679  0.7667
    75 H(1)   Bbb    -0.0002    -0.101    -0.036    -0.034 -0.3466  0.7305  0.5884
              Bcc     0.0011     0.605     0.216     0.202  0.7766  0.5753 -0.2568
 
              Baa    -0.0029    -0.394    -0.141    -0.131 -0.0438 -0.1826  0.9822
    76 C(13)  Bbb    -0.0011    -0.142    -0.051    -0.047  0.9982 -0.0482  0.0355
              Bcc     0.0040     0.536     0.191     0.179  0.0409  0.9820  0.1844
 
              Baa    -0.0060    -3.224    -1.151    -1.076 -0.2140 -0.2818  0.9353
    77 H(1)   Bbb    -0.0034    -1.795    -0.640    -0.599 -0.6452  0.7597  0.0813
              Bcc     0.0094     5.019     1.791     1.674  0.7334  0.5861  0.3444
 
              Baa    -0.0096    -1.285    -0.459    -0.429 -0.1326  0.9669  0.2181
    78 C(13)  Bbb     0.0042     0.559     0.199     0.186  0.2792 -0.1748  0.9442
              Bcc     0.0054     0.727     0.259     0.242  0.9511  0.1861 -0.2467
 
              Baa    -0.0005    -0.276    -0.098    -0.092  0.5304 -0.1510  0.8342
    79 H(1)   Bbb    -0.0002    -0.089    -0.032    -0.030 -0.3473  0.8589  0.3763
              Bcc     0.0007     0.365     0.130     0.122  0.7734  0.4893 -0.4031
 
              Baa    -0.0008    -0.447    -0.159    -0.149 -0.4545  0.0286  0.8903
    80 H(1)   Bbb    -0.0005    -0.289    -0.103    -0.096 -0.3484  0.9141 -0.2073
              Bcc     0.0014     0.736     0.263     0.246  0.8198  0.4044  0.4055
 
              Baa    -0.0002    -0.025    -0.009    -0.008 -0.1796  0.2075  0.9616
    81 C(13)  Bbb    -0.0001    -0.018    -0.006    -0.006 -0.3931  0.8810 -0.2635
              Bcc     0.0003     0.043     0.015     0.014  0.9018  0.4253  0.0767
 
              Baa    -0.0002    -0.109    -0.039    -0.036 -0.1280  0.5224  0.8430
    82 H(1)   Bbb    -0.0002    -0.082    -0.029    -0.028 -0.3327  0.7782 -0.5327
              Bcc     0.0004     0.192     0.068     0.064  0.9343  0.3486 -0.0742
 
              Baa    -0.0002    -0.082    -0.029    -0.027  0.1123 -0.2019  0.9729
    83 H(1)   Bbb    -0.0001    -0.059    -0.021    -0.020 -0.4259  0.8748  0.2307
              Bcc     0.0003     0.141     0.050     0.047  0.8978  0.4403 -0.0122
 
              Baa    -0.0001    -0.062    -0.022    -0.021 -0.3757  0.8654  0.3316
    84 H(1)   Bbb    -0.0001    -0.054    -0.019    -0.018  0.0984 -0.3186  0.9428
              Bcc     0.0002     0.117     0.042     0.039  0.9215  0.3869  0.0345
 
              Baa    -0.0076     0.548     0.196     0.183 -0.1472  0.9780  0.1481
    85 O(17)  Bbb     0.0032    -0.232    -0.083    -0.077 -0.2070 -0.1769  0.9622
              Bcc     0.0044    -0.316    -0.113    -0.105  0.9672  0.1110  0.2285
 
              Baa    -0.0147    -7.817    -2.789    -2.607 -0.1480  0.7784 -0.6100
    86 H(1)   Bbb    -0.0067    -3.562    -1.271    -1.188  0.9511  0.2812  0.1281
              Bcc     0.0213    11.379     4.060     3.796 -0.2712  0.5612  0.7820
 
              Baa    -0.0042    -0.568    -0.203    -0.189  0.5835  0.1523  0.7977
    87 C(13)  Bbb    -0.0033    -0.449    -0.160    -0.150  0.8036  0.0334 -0.5942
              Bcc     0.0076     1.016     0.363     0.339 -0.1171  0.9878 -0.1029
 
              Baa    -0.0020    -0.264    -0.094    -0.088 -0.3343  0.2337  0.9130
    88 C(13)  Bbb    -0.0015    -0.197    -0.070    -0.066  0.9089  0.3363  0.2468
              Bcc     0.0034     0.461     0.164     0.154 -0.2494  0.9123 -0.3248
 
              Baa    -0.0033    -0.448    -0.160    -0.149 -0.2832 -0.0258  0.9587
    89 C(13)  Bbb    -0.0021    -0.280    -0.100    -0.093  0.9574 -0.0668  0.2810
              Bcc     0.0054     0.728     0.260     0.243  0.0568  0.9974  0.0436
 
              Baa    -0.0022    -0.299    -0.107    -0.100  0.7694  0.4076 -0.4918
    90 C(13)  Bbb    -0.0001    -0.017    -0.006    -0.006  0.4490  0.2026  0.8703
              Bcc     0.0024     0.317     0.113     0.106 -0.4544  0.8904  0.0272
 
              Baa    -0.0015    -0.807    -0.288    -0.269 -0.4244  0.3759  0.8238
    91 H(1)   Bbb    -0.0013    -0.681    -0.243    -0.227  0.8622  0.4457  0.2408
              Bcc     0.0028     1.488     0.531     0.496 -0.2766  0.8124 -0.5132
 
              Baa    -0.0027    -0.368    -0.131    -0.123 -0.6560 -0.3700  0.6579
    92 C(13)  Bbb    -0.0003    -0.045    -0.016    -0.015  0.7280 -0.0798  0.6810
              Bcc     0.0031     0.413     0.147     0.138 -0.1995  0.9256  0.3217
 
              Baa    -0.0050    -2.670    -0.953    -0.891 -0.4174 -0.1405  0.8978
    93 H(1)   Bbb    -0.0023    -1.227    -0.438    -0.409  0.8975 -0.2185  0.3831
              Bcc     0.0073     3.898     1.391     1.300  0.1424  0.9657  0.2173
 
              Baa    -0.0009    -0.123    -0.044    -0.041  0.0343 -0.1355  0.9902
    94 C(13)  Bbb    -0.0007    -0.090    -0.032    -0.030  0.9785  0.2061 -0.0057
              Bcc     0.0016     0.213     0.076     0.071 -0.2033  0.9691  0.1396
 
              Baa    -0.0006    -0.309    -0.110    -0.103 -0.5192 -0.1032  0.8484
    95 H(1)   Bbb    -0.0005    -0.278    -0.099    -0.093  0.7801  0.3483  0.5198
              Bcc     0.0011     0.588     0.210     0.196 -0.3492  0.9317 -0.1003
 
              Baa    -0.0012    -0.653    -0.233    -0.218 -0.3055 -0.4073  0.8607
    96 H(1)   Bbb    -0.0006    -0.343    -0.122    -0.114  0.9504 -0.0758  0.3015
              Bcc     0.0019     0.996     0.355     0.332 -0.0576  0.9101  0.4103
 
              Baa    -0.0005    -0.291    -0.104    -0.097 -0.1285 -0.2669  0.9551
    97 H(1)   Bbb    -0.0004    -0.205    -0.073    -0.069  0.9595  0.2101  0.1878
              Bcc     0.0009     0.496     0.177     0.166 -0.2507  0.9406  0.2290
 

 ---------------------------------------------------------------------------------

 1\1\GINC-M9-14-2\SP\UM06L\Gen\C41H46Cl1N4Ni2O3(2)\MALLA1\24-Aug-2022\0
 \\#m06l/gen pseudo=read integral=ultrafine temperature=308 scrf=(read)
 \\Title Card Required\\0,2\C,0,1.328228,0.326699,3.808223\C,0,0.171117
 ,0.945629,4.275902\C,0,-0.98434,0.997831,3.440845\C,0,-0.861182,0.4841
 94,2.099151\C,0,1.356995,-0.17243,2.482618\H,0,-2.388631,1.904143,4.85
 7838\H,0,2.208771,0.19183,4.452155\H,0,0.118944,1.342301,5.301462\C,0,
 -2.265018,1.479982,3.849748\C,0,-3.153487,0.772406,1.712607\C,0,-3.350
 771,1.358876,2.986559\H,0,-4.359914,1.678946,3.283591\N,0,-1.928642,0.
 394243,1.255641\N,0,0.321539,0.00158,1.617443\C,0,2.409372,-1.052006,1
 .963896\C,0,-4.209097,0.428476,0.76733\N,0,2.348411,-1.619482,0.793786
 \N,0,-3.951818,-0.336289,-0.259108\Ni,0,-1.850502,-0.579841,-0.463355\
 C,0,0.61259,0.935187,-1.595407\C,0,1.719996,1.732419,-1.813257\C,0,-1.
 718316,0.419264,-2.248988\H,0,-2.738639,0.631835,-2.606017\C,0,-0.7150
 24,1.54713,-2.105291\H,0,-0.520055,1.922086,-3.144768\C,0,-1.119792,-0
 .845666,-2.372884\H,0,-1.633399,-1.717513,-2.809546\C,0,0.379484,-0.84
 1892,-2.222625\H,0,0.955844,-0.662914,-3.152214\H,0,1.506292,2.666361,
 -2.376923\C,0,-6.229493,0.35026,-0.203232\H,0,-6.580963,1.221631,-0.79
 1059\H,0,-7.110153,-0.195091,0.190385\C,0,4.265227,-2.298246,2.021992\
 H,0,4.567263,-3.138009,2.674329\H,0,5.166446,-1.725606,1.712048\C,0,3.
 368525,-2.707466,0.826757\H,0,2.800352,-3.628145,1.105445\C,0,-5.21849
 2,-0.549653,-0.984877\H,0,-5.096413,-0.172722,-2.025494\O,0,3.415074,-
 1.40654,2.803548\O,0,-5.476295,0.860027,0.939851\Ni,0,0.563371,-0.5193
 7,-0.227935\Cl,0,-1.168811,-2.736981,0.256043\C,0,4.115293,-3.060754,-
 0.493101\C,0,4.839451,-1.845995,-1.102511\H,0,4.129537,-1.027455,-1.33
 5497\H,0,5.615115,-1.433561,-0.424766\H,0,5.348772,-2.142171,-2.043585
 \C,0,5.143988,-4.169582,-0.161385\H,0,4.657357,-5.049861,0.310963\H,0,
 5.6404,-4.519586,-1.090431\H,0,5.94318,-3.810661,0.521208\C,0,3.102063
 ,-3.620685,-1.512994\H,0,2.35512,-2.85578,-1.800629\H,0,3.62435,-3.946
 194,-2.43709\H,0,2.552657,-4.494691,-1.104224\C,0,-5.606574,-2.063755,
 -1.096429\C,0,-5.743779,-2.70192,0.301664\H,0,-4.786537,-2.646097,0.85
 9581\H,0,-6.534044,-2.216652,0.913369\H,0,-6.016817,-3.773677,0.207626
 \C,0,-4.50446,-2.799898,-1.887976\H,0,-4.3699,-2.353272,-2.896963\H,0,
 -3.531963,-2.762429,-1.354157\H,0,-4.780344,-3.866394,-2.02815\C,0,-6.
 942267,-2.166724,-1.865868\H,0,-6.866039,-1.703532,-2.873148\H,0,-7.22
 1715,-3.23171,-2.006564\H,0,-7.781524,-1.676904,-1.32767\C,0,3.130418,
 1.639554,-1.403296\C,0,4.168481,1.952757,-2.317547\C,0,3.514298,1.4008
 18,-0.057323\C,0,5.519731,1.9844,-1.933458\H,0,3.909537,2.176667,-3.36
 5853\C,0,4.851699,1.445243,0.347782\H,0,2.72595,1.227961,0.68797\C,0,5
 .873203,1.72317,-0.589888\H,0,6.287107,2.219096,-2.684965\H,0,5.133716
 ,1.277614,1.399096\C,0,8.214686,2.02967,-1.00313\H,0,8.277919,1.294218
 ,-1.836506\H,0,8.113621,3.051304,-1.433695\H,0,9.14686,1.980572,-0.409
 337\O,0,7.151978,1.725596,-0.107493\H,0,0.763056,-1.809098,-1.800025\C
 ,0,-1.250698,2.763535,-1.343091\C,0,-2.302649,3.51371,-1.919038\C,0,-0
 .743208,3.182867,-0.096067\C,0,-2.841008,4.635623,-1.265645\H,0,-2.701
 856,3.219099,-2.904656\C,0,-1.277868,4.306597,0.561443\H,0,0.092364,2.
 627194,0.353386\C,0,-2.330637,5.036988,-0.017201\H,0,-3.657294,5.20542
 3,-1.738916\H,0,-0.86217,4.615773,1.534269\H,0,-2.74527,5.919546,0.495
 877\\Version=ES64L-G16RevB.01\State=2-A\HF=-2834.1898897\S2=0.989768\S
 2-1=0.\S2A=0.779328\RMSD=4.231e-09\Dipole=0.1829412,1.3829942,0.554722
 2\Quadrupole=28.6364878,-30.5641478,1.92766,-12.2308095,0.5840923,4.90
 7001\PG=C01 [X(C41H46Cl1N4Ni2O3)]\\@


 In the race for quality, there is no finish line.
                               -- David T. Kearns
 Job cpu time:       1 days  9 hours 55 minutes 23.9 seconds.
 Elapsed time:       0 days  2 hours 49 minutes 49.0 seconds.
 File lengths (MBytes):  RWF=   3713 Int=      0 D2E=      0 Chk=    238 Scr=      1
 Normal termination of Gaussian 16 at Wed Aug 24 18:08:18 2022.
