 Entering Gaussian System, Link 0=g16
 Input=Pro_R_E4.com
 Output=Pro_R_E4.log
 Initial command:
 /apps/gaussian16/B.01/AVX2/g16/l1.exe "/tmp/49628786/Gau-30226.inp" -scrdir="/tmp/49628786/"
 Entering Link 1 = /apps/gaussian16/B.01/AVX2/g16/l1.exe PID=     30229.
  
 Copyright (c) 1988-2017, Gaussian, Inc.  All Rights Reserved.
  
 This is part of the Gaussian(R) 16 program.  It is based on
 the Gaussian(R) 09 system (copyright 2009, Gaussian, Inc.),
 the Gaussian(R) 03 system (copyright 2003, Gaussian, Inc.),
 the Gaussian(R) 98 system (copyright 1998, Gaussian, Inc.),
 the Gaussian(R) 94 system (copyright 1995, Gaussian, Inc.),
 the Gaussian 92(TM) system (copyright 1992, Gaussian, Inc.),
 the Gaussian 90(TM) system (copyright 1990, Gaussian, Inc.),
 the Gaussian 88(TM) system (copyright 1988, Gaussian, Inc.),
 the Gaussian 86(TM) system (copyright 1986, Carnegie Mellon
 University), and the Gaussian 82(TM) system (copyright 1983,
 Carnegie Mellon University). Gaussian is a federally registered
 trademark of Gaussian, Inc.
  
 This software contains proprietary and confidential information,
 including trade secrets, belonging to Gaussian, Inc.
  
 This software is provided under written license and may be
 used, copied, transmitted, or stored only in accord with that
 written license.
  
 The following legend is applicable only to US Government
 contracts under FAR:
  
                    RESTRICTED RIGHTS LEGEND
  
 Use, reproduction and disclosure by the US Government is
 subject to restrictions as set forth in subparagraphs (a)
 and (c) of the Commercial Computer Software - Restricted
 Rights clause in FAR 52.227-19.
  
 Gaussian, Inc.
 340 Quinnipiac St., Bldg. 40, Wallingford CT 06492
  
  
 ---------------------------------------------------------------
 Warning -- This program may not be used in any manner that
 competes with the business of Gaussian, Inc. or will provide
 assistance to any competitor of Gaussian, Inc.  The licensee
 of this program is prohibited from giving any competitor of
 Gaussian, Inc. access to this program.  By using this program,
 the user acknowledges that Gaussian, Inc. is engaged in the
 business of creating and licensing software in the field of
 computational chemistry and represents and warrants to the
 licensee that it is not a competitor of Gaussian, Inc. and that
 it will not use this program in any manner prohibited above.
 ---------------------------------------------------------------
  

 Cite this work as:
 Gaussian 16, Revision B.01,
 M. J. Frisch, G. W. Trucks, H. B. Schlegel, G. E. Scuseria, 
 M. A. Robb, J. R. Cheeseman, G. Scalmani, V. Barone, 
 G. A. Petersson, H. Nakatsuji, X. Li, M. Caricato, A. V. Marenich, 
 J. Bloino, B. G. Janesko, R. Gomperts, B. Mennucci, H. P. Hratchian, 
 J. V. Ortiz, A. F. Izmaylov, J. L. Sonnenberg, D. Williams-Young, 
 F. Ding, F. Lipparini, F. Egidi, J. Goings, B. Peng, A. Petrone, 
 T. Henderson, D. Ranasinghe, V. G. Zakrzewski, J. Gao, N. Rega, 
 G. Zheng, W. Liang, M. Hada, M. Ehara, K. Toyota, R. Fukuda, 
 J. Hasegawa, M. Ishida, T. Nakajima, Y. Honda, O. Kitao, H. Nakai, 
 T. Vreven, K. Throssell, J. A. Montgomery, Jr., J. E. Peralta, 
 F. Ogliaro, M. J. Bearpark, J. J. Heyd, E. N. Brothers, K. N. Kudin, 
 V. N. Staroverov, T. A. Keith, R. Kobayashi, J. Normand, 
 K. Raghavachari, A. P. Rendell, J. C. Burant, S. S. Iyengar, 
 J. Tomasi, M. Cossi, J. M. Millam, M. Klene, C. Adamo, R. Cammi, 
 J. W. Ochterski, R. L. Martin, K. Morokuma, O. Farkas, 
 J. B. Foresman, and D. J. Fox, Gaussian, Inc., Wallingford CT, 2016.
 
 ******************************************
 Gaussian 16:  ES64L-G16RevB.01 20-Dec-2017
                 2-Jun-2022 
 ******************************************
 %nprocshared=12
 Will use up to   12 processors via shared memory.
 %mem=24GB
 %chk=Pro_R_E4.chk
 ----------------------------------------------------------------------
 #opt=(MaxCycles=500) freq=noraman bp86/gen pseudo=read integral=ultraf
 ine temperature=308 scrf=(read)
 ----------------------------------------------------------------------
 1/6=500,18=20,19=15,26=6,38=1,40=2,112=308000/1,3;
 2/9=110,12=2,17=6,18=5,40=1/2;
 3/5=7,11=2,16=1,17=8,25=1,30=1,70=2203,71=1,74=404,75=-5/1,2,3;
 4//1;
 5/5=2,38=5/2;
 6/7=2,8=2,9=2,10=2,28=1/1;
 7//1,2,3,16;
 1/6=500,18=20,19=15,26=6/3(2);
 2/9=110/2;
 99//99;
 2/9=110/2;
 3/5=7,6=1,11=2,16=1,17=8,25=1,30=1,70=2205,71=1,74=404,75=-5,82=7/1,2,3;
 4/5=5,16=3,69=1/1;
 5/5=2,38=5/2;
 7//1,2,3,16;
 1/6=500,18=20,19=15,26=6/3(-5);
 2/9=110/2;
 6/7=2,8=2,9=2,10=2,19=2,28=1/1;
 99/9=1/99;
 -------------------
 Title Card Required
 -------------------
 Symbolic Z-matrix:
 Charge =  0 Multiplicity = 4
 C                     2.44113  -2.11925   3.03123 
 C                     1.45011  -1.84576   3.97962 
 C                     0.19906  -1.31358   3.5702 
 C                     0.0085   -1.04751   2.15708 
 C                     2.18303  -1.83691   1.67792 
 H                    -0.75931  -1.2369    5.53831 
 H                     3.41568  -2.53758   3.31859 
 H                     1.62416  -2.04756   5.04778 
 C                    -0.89045  -1.0517    4.46159 
 C                    -2.24336  -0.42265   2.56231 
 C                    -2.11529  -0.62604   3.95089 
 H                    -2.99303  -0.48461   4.59808 
 N                    -1.17464  -0.5479    1.69483 
 N                     0.9899   -1.32293   1.26001 
 C                     3.13905  -2.11416   0.60138 
 C                    -3.47715  -0.19546   1.85381 
 N                     3.10527  -1.53835  -0.56145 
 N                    -3.51101  -0.22573   0.53444 
 Ni                   -1.56747   0.06812  -0.11476 
 C                     0.2428    0.64233  -0.17299 
 C                     0.62806   1.84942   0.30182 
 C                    -1.79925   0.00062  -2.17281 
 H                    -2.77963  -0.48338  -2.30255 
 C                    -1.76715   1.38604  -1.92079 
 H                    -0.79123   1.89315  -1.93027 
 C                    -0.65733  -0.87059  -2.47069 
 H                    -0.9095   -1.93479  -2.60257 
 C                     0.67675  -0.50351  -2.70563 
 H                     0.97332   0.5519   -2.81127 
 H                    -0.21246   2.52073   0.58402 
 C                    -5.60559   0.32824   1.4465 
 H                    -5.72861   1.43198   1.42215 
 H                    -6.57029  -0.14031   1.7157 
 C                     4.74127  -3.27832  -0.45435 
 H                     4.6242   -4.33611  -0.75952 
 H                     5.81683  -3.07099  -0.27881 
 C                     4.05663  -2.2683   -1.42878 
 H                     3.43151  -2.82434  -2.16571 
 C                    -4.94664  -0.22055   0.15612 
 H                    -5.10319   0.48144  -0.68843 
 O                     4.04129  -3.10277   0.81049 
 O                    -4.64463   0.00955   2.49957 
 Ni                    0.74981  -1.07306  -0.70938 
 Cl                    0.63706  -3.4091   -1.1042 
 C                     5.04763  -1.37656  -2.24373 
 C                     5.97625  -0.56607  -1.31666 
 H                     5.39014   0.06271  -0.61768 
 H                     6.6458   -1.21382  -0.71297 
 H                     6.62652   0.10645  -1.91407 
 C                     5.8921   -2.3067   -3.14519 
 H                     5.24704  -2.90646  -3.82225 
 H                     6.583    -1.71004  -3.77698 
 H                     6.51424  -3.01219  -2.55428 
 C                     4.24525  -0.4072   -3.13569 
 H                     3.62106   0.27677  -2.52737 
 H                     4.93188   0.20905  -3.7535 
 H                     3.57539  -0.96023  -3.82732 
 C                    -5.48239  -1.63516  -0.28417 
 C                    -5.37284  -2.66435   0.86228 
 H                    -4.31803  -2.81301   1.17316 
 H                    -5.95957  -2.36916   1.75656 
 H                    -5.75931  -3.64906   0.52585 
 C                    -4.67619  -2.1536   -1.49218 
 H                    -4.7537   -1.4636   -2.35941 
 H                    -3.60589  -2.28458  -1.23611 
 H                    -5.06844  -3.13845  -1.82113 
 C                    -6.96007  -1.47395  -0.70883 
 H                    -7.0662   -0.73693  -1.53328 
 H                    -7.3625   -2.44315  -1.07017 
 H                    -7.6096   -1.14269   0.12834 
 C                     1.94175   2.47715   0.51878 
 C                     1.98646   3.81601   0.98176 
 C                     3.18388   1.81898   0.31008 
 C                     3.19664   4.48518   1.23031 
 H                     1.03916   4.35358   1.15613 
 C                     4.39357   2.474     0.55447 
 H                     3.18475   0.77422  -0.04243 
 C                     4.41891   3.81223   1.01644 
 H                     3.17387   5.52383   1.58987 
 H                     5.35755   1.96642   0.3957 
 C                     5.73735   5.69663   1.68702 
 H                     5.27721   6.4118    0.96841 
 H                     5.24887   5.8219    2.67964 
 H                     6.81465   5.9285    1.7848 
 O                     5.6558    4.35468   1.22306 
 H                     1.35522  -1.2571   -3.13238 
 C                    -2.92528   2.29649  -1.92937 
 C                    -4.17197   1.95992  -2.52122 
 C                    -2.78026   3.60388  -1.39114 
 C                    -5.23226   2.88021  -2.5457 
 H                    -4.29806   0.97941  -3.00605 
 C                    -3.84303   4.51851  -1.40686 
 H                    -1.81246   3.89687  -0.95302 
 C                    -5.07843   4.15999  -1.98019 
 H                    -6.1844    2.6001   -3.02424 
 H                    -3.70509   5.52342  -0.97686 
 H                    -5.91096   4.88074  -2.00282 
 

 GradGradGradGradGradGradGradGradGradGradGradGradGradGradGradGradGradGrad
 Berny optimization.
 Initialization pass.
                           ----------------------------
                           !    Initial Parameters    !
                           ! (Angstroms and Degrees)  !
 --------------------------                            --------------------------
 ! Name  Definition              Value          Derivative Info.                !
 --------------------------------------------------------------------------------
 ! R1    R(1,2)                  1.3987         estimate D2E/DX2                !
 ! R2    R(1,5)                  1.4063         estimate D2E/DX2                !
 ! R3    R(1,7)                  1.0988         estimate D2E/DX2                !
 ! R4    R(2,3)                  1.4199         estimate D2E/DX2                !
 ! R5    R(2,8)                  1.1009         estimate D2E/DX2                !
 ! R6    R(3,4)                  1.4505         estimate D2E/DX2                !
 ! R7    R(3,9)                  1.4318         estimate D2E/DX2                !
 ! R8    R(4,13)                 1.365          estimate D2E/DX2                !
 ! R9    R(4,14)                 1.3578         estimate D2E/DX2                !
 ! R10   R(5,14)                 1.3647         estimate D2E/DX2                !
 ! R11   R(5,15)                 1.4662         estimate D2E/DX2                !
 ! R12   R(6,9)                  1.1004         estimate D2E/DX2                !
 ! R13   R(9,11)                 1.3936         estimate D2E/DX2                !
 ! R14   R(10,11)                1.4092         estimate D2E/DX2                !
 ! R15   R(10,13)                1.3822         estimate D2E/DX2                !
 ! R16   R(10,16)                1.4408         estimate D2E/DX2                !
 ! R17   R(11,12)                1.0997         estimate D2E/DX2                !
 ! R18   R(13,19)                1.9515         estimate D2E/DX2                !
 ! R19   R(14,43)                1.9996         estimate D2E/DX2                !
 ! R20   R(15,17)                1.298          estimate D2E/DX2                !
 ! R21   R(15,41)                1.3547         estimate D2E/DX2                !
 ! R22   R(16,18)                1.3202         estimate D2E/DX2                !
 ! R23   R(16,42)                1.3498         estimate D2E/DX2                !
 ! R24   R(17,37)                1.4799         estimate D2E/DX2                !
 ! R25   R(18,19)                2.0701         estimate D2E/DX2                !
 ! R26   R(18,39)                1.4846         estimate D2E/DX2                !
 ! R27   R(19,20)                1.9            estimate D2E/DX2                !
 ! R28   R(19,22)                2.0722         estimate D2E/DX2                !
 ! R29   R(19,24)                2.2447         estimate D2E/DX2                !
 ! R30   R(19,43)                2.6506         estimate D2E/DX2                !
 ! R31   R(20,21)                1.3531         estimate D2E/DX2                !
 ! R32   R(20,43)                1.8674         estimate D2E/DX2                !
 ! R33   R(21,30)                1.1121         estimate D2E/DX2                !
 ! R34   R(21,71)                1.472          estimate D2E/DX2                !
 ! R35   R(22,23)                1.101          estimate D2E/DX2                !
 ! R36   R(22,24)                1.4085         estimate D2E/DX2                !
 ! R37   R(22,26)                1.4669         estimate D2E/DX2                !
 ! R38   R(24,25)                1.0999         estimate D2E/DX2                !
 ! R39   R(24,87)                1.4732         estimate D2E/DX2                !
 ! R40   R(26,27)                1.1016         estimate D2E/DX2                !
 ! R41   R(26,28)                1.4035         estimate D2E/DX2                !
 ! R42   R(26,43)                2.2635         estimate D2E/DX2                !
 ! R43   R(28,29)                1.1014         estimate D2E/DX2                !
 ! R44   R(28,43)                2.0772         estimate D2E/DX2                !
 ! R45   R(28,86)                1.1001         estimate D2E/DX2                !
 ! R46   R(31,32)                1.1108         estimate D2E/DX2                !
 ! R47   R(31,33)                1.1057         estimate D2E/DX2                !
 ! R48   R(31,39)                1.5493         estimate D2E/DX2                !
 ! R49   R(31,42)                1.4608         estimate D2E/DX2                !
 ! R50   R(34,35)                1.1071         estimate D2E/DX2                !
 ! R51   R(34,36)                1.1093         estimate D2E/DX2                !
 ! R52   R(34,37)                1.5615         estimate D2E/DX2                !
 ! R53   R(34,41)                1.4562         estimate D2E/DX2                !
 ! R54   R(37,38)                1.1149         estimate D2E/DX2                !
 ! R55   R(37,45)                1.5625         estimate D2E/DX2                !
 ! R56   R(39,40)                1.1093         estimate D2E/DX2                !
 ! R57   R(39,58)                1.5754         estimate D2E/DX2                !
 ! R58   R(43,44)                2.3719         estimate D2E/DX2                !
 ! R59   R(45,46)                1.5423         estimate D2E/DX2                !
 ! R60   R(45,50)                1.5463         estimate D2E/DX2                !
 ! R61   R(45,54)                1.5424         estimate D2E/DX2                !
 ! R62   R(46,47)                1.1079         estimate D2E/DX2                !
 ! R63   R(46,48)                1.1101         estimate D2E/DX2                !
 ! R64   R(46,49)                1.11           estimate D2E/DX2                !
 ! R65   R(50,51)                1.111          estimate D2E/DX2                !
 ! R66   R(50,52)                1.1102         estimate D2E/DX2                !
 ! R67   R(50,53)                1.1108         estimate D2E/DX2                !
 ! R68   R(54,55)                1.1079         estimate D2E/DX2                !
 ! R69   R(54,56)                1.1104         estimate D2E/DX2                !
 ! R70   R(54,57)                1.1104         estimate D2E/DX2                !
 ! R71   R(58,59)                1.5445         estimate D2E/DX2                !
 ! R72   R(58,63)                1.5421         estimate D2E/DX2                !
 ! R73   R(58,67)                1.5459         estimate D2E/DX2                !
 ! R74   R(59,60)                1.1097         estimate D2E/DX2                !
 ! R75   R(59,61)                1.1096         estimate D2E/DX2                !
 ! R76   R(59,62)                1.11           estimate D2E/DX2                !
 ! R77   R(63,64)                1.1109         estimate D2E/DX2                !
 ! R78   R(63,65)                1.1083         estimate D2E/DX2                !
 ! R79   R(63,66)                1.11           estimate D2E/DX2                !
 ! R80   R(67,68)                1.1109         estimate D2E/DX2                !
 ! R81   R(67,69)                1.1099         estimate D2E/DX2                !
 ! R82   R(67,70)                1.1102         estimate D2E/DX2                !
 ! R83   R(71,72)                1.4174         estimate D2E/DX2                !
 ! R84   R(71,73)                1.4211         estimate D2E/DX2                !
 ! R85   R(72,74)                1.405          estimate D2E/DX2                !
 ! R86   R(72,75)                1.1031         estimate D2E/DX2                !
 ! R87   R(73,76)                1.3972         estimate D2E/DX2                !
 ! R88   R(73,77)                1.1026         estimate D2E/DX2                !
 ! R89   R(74,78)                1.4116         estimate D2E/DX2                !
 ! R90   R(74,79)                1.0994         estimate D2E/DX2                !
 ! R91   R(76,78)                1.416          estimate D2E/DX2                !
 ! R92   R(76,80)                1.101          estimate D2E/DX2                !
 ! R93   R(78,85)                1.3663         estimate D2E/DX2                !
 ! R94   R(81,82)                1.1134         estimate D2E/DX2                !
 ! R95   R(81,83)                1.1134         estimate D2E/DX2                !
 ! R96   R(81,84)                1.1063         estimate D2E/DX2                !
 ! R97   R(81,85)                1.4222         estimate D2E/DX2                !
 ! R98   R(87,88)                1.4205         estimate D2E/DX2                !
 ! R99   R(87,89)                1.4213         estimate D2E/DX2                !
 ! R100  R(88,90)                1.4042         estimate D2E/DX2                !
 ! R101  R(88,91)                1.1011         estimate D2E/DX2                !
 ! R102  R(89,92)                1.4022         estimate D2E/DX2                !
 ! R103  R(89,93)                1.102          estimate D2E/DX2                !
 ! R104  R(90,94)                1.4076         estimate D2E/DX2                !
 ! R105  R(90,95)                1.1018         estimate D2E/DX2                !
 ! R106  R(92,94)                1.4084         estimate D2E/DX2                !
 ! R107  R(92,96)                1.1017         estimate D2E/DX2                !
 ! R108  R(94,97)                1.1014         estimate D2E/DX2                !
 ! A1    A(2,1,5)              118.894          estimate D2E/DX2                !
 ! A2    A(2,1,7)              121.704          estimate D2E/DX2                !
 ! A3    A(5,1,7)              119.3988         estimate D2E/DX2                !
 ! A4    A(1,2,3)              120.1369         estimate D2E/DX2                !
 ! A5    A(1,2,8)              120.666          estimate D2E/DX2                !
 ! A6    A(3,2,8)              119.1947         estimate D2E/DX2                !
 ! A7    A(2,3,4)              117.7374         estimate D2E/DX2                !
 ! A8    A(2,3,9)              124.0207         estimate D2E/DX2                !
 ! A9    A(4,3,9)              118.2282         estimate D2E/DX2                !
 ! A10   A(3,4,13)             120.726          estimate D2E/DX2                !
 ! A11   A(3,4,14)             120.7617         estimate D2E/DX2                !
 ! A12   A(13,4,14)            118.4896         estimate D2E/DX2                !
 ! A13   A(1,5,14)             122.0569         estimate D2E/DX2                !
 ! A14   A(1,5,15)             123.2923         estimate D2E/DX2                !
 ! A15   A(14,5,15)            114.6098         estimate D2E/DX2                !
 ! A16   A(3,9,6)              119.1895         estimate D2E/DX2                !
 ! A17   A(3,9,11)             119.7673         estimate D2E/DX2                !
 ! A18   A(6,9,11)             120.9786         estimate D2E/DX2                !
 ! A19   A(11,10,13)           122.349          estimate D2E/DX2                !
 ! A20   A(11,10,16)           125.8121         estimate D2E/DX2                !
 ! A21   A(13,10,16)           111.58           estimate D2E/DX2                !
 ! A22   A(9,11,10)            119.0149         estimate D2E/DX2                !
 ! A23   A(9,11,12)            121.6761         estimate D2E/DX2                !
 ! A24   A(10,11,12)           119.2621         estimate D2E/DX2                !
 ! A25   A(4,13,10)            119.3966         estimate D2E/DX2                !
 ! A26   A(4,13,19)            127.1605         estimate D2E/DX2                !
 ! A27   A(10,13,19)           113.436          estimate D2E/DX2                !
 ! A28   A(4,14,5)             120.3964         estimate D2E/DX2                !
 ! A29   A(4,14,43)            122.584          estimate D2E/DX2                !
 ! A30   A(5,14,43)            116.9772         estimate D2E/DX2                !
 ! A31   A(5,15,17)            123.8418         estimate D2E/DX2                !
 ! A32   A(5,15,41)            117.318          estimate D2E/DX2                !
 ! A33   A(17,15,41)           118.6435         estimate D2E/DX2                !
 ! A34   A(10,16,18)           120.6509         estimate D2E/DX2                !
 ! A35   A(10,16,42)           121.9617         estimate D2E/DX2                !
 ! A36   A(18,16,42)           117.3494         estimate D2E/DX2                !
 ! A37   A(15,17,37)           106.8275         estimate D2E/DX2                !
 ! A38   A(16,18,19)           106.6242         estimate D2E/DX2                !
 ! A39   A(16,18,39)           106.2239         estimate D2E/DX2                !
 ! A40   A(19,18,39)           145.8396         estimate D2E/DX2                !
 ! A41   A(13,19,18)            81.5689         estimate D2E/DX2                !
 ! A42   A(13,19,20)            86.1025         estimate D2E/DX2                !
 ! A43   A(13,19,22)           158.9382         estimate D2E/DX2                !
 ! A44   A(13,19,24)           161.6798         estimate D2E/DX2                !
 ! A45   A(13,19,43)            84.0381         estimate D2E/DX2                !
 ! A46   A(18,19,20)           161.2674         estimate D2E/DX2                !
 ! A47   A(18,19,22)           101.6444         estimate D2E/DX2                !
 ! A48   A(18,19,24)           104.6049         estimate D2E/DX2                !
 ! A49   A(18,19,43)           146.1044         estimate D2E/DX2                !
 ! A50   A(20,19,22)            94.932          estimate D2E/DX2                !
 ! A51   A(20,19,24)            83.2614         estimate D2E/DX2                !
 ! A52   A(22,19,43)            82.0074         estimate D2E/DX2                !
 ! A53   A(24,19,43)            98.6302         estimate D2E/DX2                !
 ! A54   A(19,20,21)           122.0128         estimate D2E/DX2                !
 ! A55   A(21,20,43)           147.4507         estimate D2E/DX2                !
 ! A56   A(20,21,30)           114.3523         estimate D2E/DX2                !
 ! A57   A(20,21,71)           133.3322         estimate D2E/DX2                !
 ! A58   A(30,21,71)           112.3138         estimate D2E/DX2                !
 ! A59   A(19,22,23)           103.353          estimate D2E/DX2                !
 ! A60   A(19,22,26)            97.6984         estimate D2E/DX2                !
 ! A61   A(23,22,24)           118.2784         estimate D2E/DX2                !
 ! A62   A(23,22,26)           114.0895         estimate D2E/DX2                !
 ! A63   A(24,22,26)           127.0691         estimate D2E/DX2                !
 ! A64   A(19,24,25)           101.4618         estimate D2E/DX2                !
 ! A65   A(19,24,87)           115.9433         estimate D2E/DX2                !
 ! A66   A(22,24,25)           118.1762         estimate D2E/DX2                !
 ! A67   A(22,24,87)           126.0807         estimate D2E/DX2                !
 ! A68   A(25,24,87)           114.3659         estimate D2E/DX2                !
 ! A69   A(22,26,27)           114.8268         estimate D2E/DX2                !
 ! A70   A(22,26,28)           128.2169         estimate D2E/DX2                !
 ! A71   A(22,26,43)           112.2761         estimate D2E/DX2                !
 ! A72   A(27,26,28)           116.7578         estimate D2E/DX2                !
 ! A73   A(27,26,43)            98.5722         estimate D2E/DX2                !
 ! A74   A(26,28,29)           121.5108         estimate D2E/DX2                !
 ! A75   A(26,28,86)           118.1642         estimate D2E/DX2                !
 ! A76   A(29,28,43)           110.2094         estimate D2E/DX2                !
 ! A77   A(29,28,86)           116.9447         estimate D2E/DX2                !
 ! A78   A(43,28,86)            99.397          estimate D2E/DX2                !
 ! A79   A(32,31,33)           109.2539         estimate D2E/DX2                !
 ! A80   A(32,31,39)           112.3827         estimate D2E/DX2                !
 ! A81   A(32,31,42)           107.7833         estimate D2E/DX2                !
 ! A82   A(33,31,39)           115.0704         estimate D2E/DX2                !
 ! A83   A(33,31,42)           107.8166         estimate D2E/DX2                !
 ! A84   A(39,31,42)           104.0834         estimate D2E/DX2                !
 ! A85   A(35,34,36)           108.948          estimate D2E/DX2                !
 ! A86   A(35,34,37)           113.5541         estimate D2E/DX2                !
 ! A87   A(35,34,41)           107.6834         estimate D2E/DX2                !
 ! A88   A(36,34,37)           113.7629         estimate D2E/DX2                !
 ! A89   A(36,34,41)           107.8225         estimate D2E/DX2                !
 ! A90   A(37,34,41)           104.6718         estimate D2E/DX2                !
 ! A91   A(17,37,34)           103.6012         estimate D2E/DX2                !
 ! A92   A(17,37,38)           105.8391         estimate D2E/DX2                !
 ! A93   A(17,37,45)           115.5878         estimate D2E/DX2                !
 ! A94   A(34,37,38)           109.6153         estimate D2E/DX2                !
 ! A95   A(34,37,45)           114.6159         estimate D2E/DX2                !
 ! A96   A(38,37,45)           107.1876         estimate D2E/DX2                !
 ! A97   A(18,39,31)           101.5528         estimate D2E/DX2                !
 ! A98   A(18,39,40)           109.4318         estimate D2E/DX2                !
 ! A99   A(18,39,58)           113.3858         estimate D2E/DX2                !
 ! A100  A(31,39,40)           110.4813         estimate D2E/DX2                !
 ! A101  A(31,39,58)           113.9645         estimate D2E/DX2                !
 ! A102  A(40,39,58)           107.9062         estimate D2E/DX2                !
 ! A103  A(15,41,34)           105.9049         estimate D2E/DX2                !
 ! A104  A(16,42,31)           104.9056         estimate D2E/DX2                !
 ! A105  A(14,43,19)            86.4354         estimate D2E/DX2                !
 ! A106  A(14,43,20)            82.2121         estimate D2E/DX2                !
 ! A107  A(14,43,26)           148.4513         estimate D2E/DX2                !
 ! A108  A(14,43,44)            92.6697         estimate D2E/DX2                !
 ! A109  A(19,43,26)            65.9553         estimate D2E/DX2                !
 ! A110  A(19,43,28)            93.8299         estimate D2E/DX2                !
 ! A111  A(19,43,44)           114.8231         estimate D2E/DX2                !
 ! A112  A(20,43,26)            88.4273         estimate D2E/DX2                !
 ! A113  A(20,43,28)            90.8381         estimate D2E/DX2                !
 ! A114  A(20,43,44)           159.9868         estimate D2E/DX2                !
 ! A115  A(26,43,44)            85.9296         estimate D2E/DX2                !
 ! A116  A(28,43,44)            96.2233         estimate D2E/DX2                !
 ! A117  A(37,45,46)           111.6091         estimate D2E/DX2                !
 ! A118  A(37,45,50)           107.8873         estimate D2E/DX2                !
 ! A119  A(37,45,54)           109.2902         estimate D2E/DX2                !
 ! A120  A(46,45,50)           109.7376         estimate D2E/DX2                !
 ! A121  A(46,45,54)           109.303          estimate D2E/DX2                !
 ! A122  A(50,45,54)           108.9668         estimate D2E/DX2                !
 ! A123  A(45,46,47)           111.0354         estimate D2E/DX2                !
 ! A124  A(45,46,48)           112.5452         estimate D2E/DX2                !
 ! A125  A(45,46,49)           110.341          estimate D2E/DX2                !
 ! A126  A(47,46,48)           107.8873         estimate D2E/DX2                !
 ! A127  A(47,46,49)           107.7957         estimate D2E/DX2                !
 ! A128  A(48,46,49)           107.0312         estimate D2E/DX2                !
 ! A129  A(45,50,51)           111.2807         estimate D2E/DX2                !
 ! A130  A(45,50,52)           110.3868         estimate D2E/DX2                !
 ! A131  A(45,50,53)           112.1969         estimate D2E/DX2                !
 ! A132  A(51,50,52)           107.738          estimate D2E/DX2                !
 ! A133  A(51,50,53)           107.8498         estimate D2E/DX2                !
 ! A134  A(52,50,53)           107.1882         estimate D2E/DX2                !
 ! A135  A(45,54,55)           111.3179         estimate D2E/DX2                !
 ! A136  A(45,54,56)           110.4186         estimate D2E/DX2                !
 ! A137  A(45,54,57)           111.1634         estimate D2E/DX2                !
 ! A138  A(55,54,56)           108.1351         estimate D2E/DX2                !
 ! A139  A(55,54,57)           108.0346         estimate D2E/DX2                !
 ! A140  A(56,54,57)           107.6323         estimate D2E/DX2                !
 ! A141  A(39,58,59)           111.5163         estimate D2E/DX2                !
 ! A142  A(39,58,63)           110.0603         estimate D2E/DX2                !
 ! A143  A(39,58,67)           107.9502         estimate D2E/DX2                !
 ! A144  A(59,58,63)           108.6845         estimate D2E/DX2                !
 ! A145  A(59,58,67)           109.9489         estimate D2E/DX2                !
 ! A146  A(63,58,67)           108.6383         estimate D2E/DX2                !
 ! A147  A(58,59,60)           111.3852         estimate D2E/DX2                !
 ! A148  A(58,59,61)           112.5485         estimate D2E/DX2                !
 ! A149  A(58,59,62)           109.9656         estimate D2E/DX2                !
 ! A150  A(60,59,61)           108.2093         estimate D2E/DX2                !
 ! A151  A(60,59,62)           107.2784         estimate D2E/DX2                !
 ! A152  A(61,59,62)           107.2279         estimate D2E/DX2                !
 ! A153  A(58,63,64)           111.4831         estimate D2E/DX2                !
 ! A154  A(58,63,65)           111.3225         estimate D2E/DX2                !
 ! A155  A(58,63,66)           110.2251         estimate D2E/DX2                !
 ! A156  A(64,63,65)           108.7325         estimate D2E/DX2                !
 ! A157  A(64,63,66)           107.1624         estimate D2E/DX2                !
 ! A158  A(65,63,66)           107.7523         estimate D2E/DX2                !
 ! A159  A(58,67,68)           111.3676         estimate D2E/DX2                !
 ! A160  A(58,67,69)           110.1788         estimate D2E/DX2                !
 ! A161  A(58,67,70)           112.5332         estimate D2E/DX2                !
 ! A162  A(68,67,69)           107.6424         estimate D2E/DX2                !
 ! A163  A(68,67,70)           107.8049         estimate D2E/DX2                !
 ! A164  A(69,67,70)           107.0937         estimate D2E/DX2                !
 ! A165  A(21,71,72)           118.6277         estimate D2E/DX2                !
 ! A166  A(21,71,73)           124.1169         estimate D2E/DX2                !
 ! A167  A(72,71,73)           117.2499         estimate D2E/DX2                !
 ! A168  A(71,72,74)           122.3339         estimate D2E/DX2                !
 ! A169  A(71,72,75)           119.0054         estimate D2E/DX2                !
 ! A170  A(74,72,75)           118.6605         estimate D2E/DX2                !
 ! A171  A(71,73,76)           120.9269         estimate D2E/DX2                !
 ! A172  A(71,73,77)           119.1077         estimate D2E/DX2                !
 ! A173  A(76,73,77)           119.9638         estimate D2E/DX2                !
 ! A174  A(72,74,78)           119.4688         estimate D2E/DX2                !
 ! A175  A(72,74,79)           119.3397         estimate D2E/DX2                !
 ! A176  A(78,74,79)           121.1914         estimate D2E/DX2                !
 ! A177  A(73,76,78)           121.0404         estimate D2E/DX2                !
 ! A178  A(73,76,80)           121.1125         estimate D2E/DX2                !
 ! A179  A(78,76,80)           117.8471         estimate D2E/DX2                !
 ! A180  A(74,78,76)           118.98           estimate D2E/DX2                !
 ! A181  A(74,78,85)           124.8676         estimate D2E/DX2                !
 ! A182  A(76,78,85)           116.1523         estimate D2E/DX2                !
 ! A183  A(82,81,83)           108.7741         estimate D2E/DX2                !
 ! A184  A(82,81,84)           108.9577         estimate D2E/DX2                !
 ! A185  A(82,81,85)           111.8282         estimate D2E/DX2                !
 ! A186  A(83,81,84)           108.9572         estimate D2E/DX2                !
 ! A187  A(83,81,85)           111.8293         estimate D2E/DX2                !
 ! A188  A(84,81,85)           106.4056         estimate D2E/DX2                !
 ! A189  A(78,85,81)           118.4145         estimate D2E/DX2                !
 ! A190  A(24,87,88)           123.09           estimate D2E/DX2                !
 ! A191  A(24,87,89)           119.0831         estimate D2E/DX2                !
 ! A192  A(88,87,89)           117.7288         estimate D2E/DX2                !
 ! A193  A(87,88,90)           120.9762         estimate D2E/DX2                !
 ! A194  A(87,88,91)           119.6667         estimate D2E/DX2                !
 ! A195  A(90,88,91)           119.3067         estimate D2E/DX2                !
 ! A196  A(87,89,92)           121.2263         estimate D2E/DX2                !
 ! A197  A(87,89,93)           118.995          estimate D2E/DX2                !
 ! A198  A(92,89,93)           119.7786         estimate D2E/DX2                !
 ! A199  A(88,90,94)           120.4217         estimate D2E/DX2                !
 ! A200  A(88,90,95)           119.5687         estimate D2E/DX2                !
 ! A201  A(94,90,95)           120.0038         estimate D2E/DX2                !
 ! A202  A(89,92,94)           120.2225         estimate D2E/DX2                !
 ! A203  A(89,92,96)           119.7145         estimate D2E/DX2                !
 ! A204  A(94,92,96)           120.0606         estimate D2E/DX2                !
 ! A205  A(90,94,92)           119.3974         estimate D2E/DX2                !
 ! A206  A(90,94,97)           120.2731         estimate D2E/DX2                !
 ! A207  A(92,94,97)           120.3197         estimate D2E/DX2                !
 ! A208  L(14,43,28,19,-1)     180.2653         estimate D2E/DX2                !
 ! A209  L(14,43,28,19,-2)     170.0389         estimate D2E/DX2                !
 ! D1    D(5,1,2,3)              1.0751         estimate D2E/DX2                !
 ! D2    D(5,1,2,8)           -179.4921         estimate D2E/DX2                !
 ! D3    D(7,1,2,3)           -179.5769         estimate D2E/DX2                !
 ! D4    D(7,1,2,8)             -0.1441         estimate D2E/DX2                !
 ! D5    D(2,1,5,14)            -0.96           estimate D2E/DX2                !
 ! D6    D(2,1,5,15)          -178.5039         estimate D2E/DX2                !
 ! D7    D(7,1,5,14)           179.6766         estimate D2E/DX2                !
 ! D8    D(7,1,5,15)             2.1327         estimate D2E/DX2                !
 ! D9    D(1,2,3,4)             -1.1521         estimate D2E/DX2                !
 ! D10   D(1,2,3,9)            177.4755         estimate D2E/DX2                !
 ! D11   D(8,2,3,4)            179.4067         estimate D2E/DX2                !
 ! D12   D(8,2,3,9)             -1.9656         estimate D2E/DX2                !
 ! D13   D(2,3,4,13)           179.3682         estimate D2E/DX2                !
 ! D14   D(2,3,4,14)             1.1288         estimate D2E/DX2                !
 ! D15   D(9,3,4,13)             0.6592         estimate D2E/DX2                !
 ! D16   D(9,3,4,14)          -177.5802         estimate D2E/DX2                !
 ! D17   D(2,3,9,6)              2.0775         estimate D2E/DX2                !
 ! D18   D(2,3,9,11)          -175.0302         estimate D2E/DX2                !
 ! D19   D(4,3,9,6)           -179.3011         estimate D2E/DX2                !
 ! D20   D(4,3,9,11)             3.5912         estimate D2E/DX2                !
 ! D21   D(3,4,13,10)           -6.5624         estimate D2E/DX2                !
 ! D22   D(3,4,13,19)          172.4178         estimate D2E/DX2                !
 ! D23   D(14,4,13,10)         171.7162         estimate D2E/DX2                !
 ! D24   D(14,4,13,19)          -9.3036         estimate D2E/DX2                !
 ! D25   D(3,4,14,5)            -1.0256         estimate D2E/DX2                !
 ! D26   D(3,4,14,43)          176.5342         estimate D2E/DX2                !
 ! D27   D(13,4,14,5)         -179.3036         estimate D2E/DX2                !
 ! D28   D(13,4,14,43)          -1.7438         estimate D2E/DX2                !
 ! D29   D(1,5,14,4)             0.943          estimate D2E/DX2                !
 ! D30   D(1,5,14,43)         -176.7499         estimate D2E/DX2                !
 ! D31   D(15,5,14,4)          178.685          estimate D2E/DX2                !
 ! D32   D(15,5,14,43)           0.9921         estimate D2E/DX2                !
 ! D33   D(1,5,15,17)         -159.4797         estimate D2E/DX2                !
 ! D34   D(1,5,15,41)           25.697          estimate D2E/DX2                !
 ! D35   D(14,5,15,17)          22.8098         estimate D2E/DX2                !
 ! D36   D(14,5,15,41)        -152.0135         estimate D2E/DX2                !
 ! D37   D(3,9,11,10)           -1.9042         estimate D2E/DX2                !
 ! D38   D(3,9,11,12)          175.5856         estimate D2E/DX2                !
 ! D39   D(6,9,11,10)         -178.9591         estimate D2E/DX2                !
 ! D40   D(6,9,11,12)           -1.4692         estimate D2E/DX2                !
 ! D41   D(13,10,11,9)          -4.2045         estimate D2E/DX2                !
 ! D42   D(13,10,11,12)        178.2441         estimate D2E/DX2                !
 ! D43   D(16,10,11,9)         169.4489         estimate D2E/DX2                !
 ! D44   D(16,10,11,12)         -8.1024         estimate D2E/DX2                !
 ! D45   D(11,10,13,4)           8.5034         estimate D2E/DX2                !
 ! D46   D(11,10,13,19)       -170.6108         estimate D2E/DX2                !
 ! D47   D(16,10,13,4)        -165.9647         estimate D2E/DX2                !
 ! D48   D(16,10,13,19)         14.9211         estimate D2E/DX2                !
 ! D49   D(11,10,16,18)       -169.2869         estimate D2E/DX2                !
 ! D50   D(11,10,16,42)          8.4114         estimate D2E/DX2                !
 ! D51   D(13,10,16,18)          4.9494         estimate D2E/DX2                !
 ! D52   D(13,10,16,42)       -177.3523         estimate D2E/DX2                !
 ! D53   D(4,13,19,18)         160.7415         estimate D2E/DX2                !
 ! D54   D(4,13,19,20)         -33.4008         estimate D2E/DX2                !
 ! D55   D(4,13,19,22)          60.2039         estimate D2E/DX2                !
 ! D56   D(4,13,19,24)         -87.955          estimate D2E/DX2                !
 ! D57   D(4,13,19,43)          11.5184         estimate D2E/DX2                !
 ! D58   D(10,13,19,18)        -20.2269         estimate D2E/DX2                !
 ! D59   D(10,13,19,20)        145.6308         estimate D2E/DX2                !
 ! D60   D(10,13,19,22)       -120.7645         estimate D2E/DX2                !
 ! D61   D(10,13,19,24)         91.0766         estimate D2E/DX2                !
 ! D62   D(10,13,19,43)       -169.45           estimate D2E/DX2                !
 ! D63   D(4,14,43,19)           7.4197         estimate D2E/DX2                !
 ! D64   D(4,14,43,20)          53.2638         estimate D2E/DX2                !
 ! D65   D(4,14,43,26)         -20.7324         estimate D2E/DX2                !
 ! D66   D(4,14,43,44)        -107.3002         estimate D2E/DX2                !
 ! D67   D(5,14,43,19)        -174.942          estimate D2E/DX2                !
 ! D68   D(5,14,43,20)        -129.0979         estimate D2E/DX2                !
 ! D69   D(5,14,43,26)         156.9059         estimate D2E/DX2                !
 ! D70   D(5,14,43,44)          70.338          estimate D2E/DX2                !
 ! D71   D(5,15,17,37)        -169.4257         estimate D2E/DX2                !
 ! D72   D(41,15,17,37)          5.3333         estimate D2E/DX2                !
 ! D73   D(5,15,41,34)         173.0491         estimate D2E/DX2                !
 ! D74   D(17,15,41,34)         -2.0523         estimate D2E/DX2                !
 ! D75   D(10,16,18,19)        -20.2761         estimate D2E/DX2                !
 ! D76   D(10,16,18,39)        169.2331         estimate D2E/DX2                !
 ! D77   D(42,16,18,19)        161.9223         estimate D2E/DX2                !
 ! D78   D(42,16,18,39)         -8.5684         estimate D2E/DX2                !
 ! D79   D(10,16,42,31)        174.481          estimate D2E/DX2                !
 ! D80   D(18,16,42,31)         -7.7483         estimate D2E/DX2                !
 ! D81   D(15,17,37,34)         -5.8799         estimate D2E/DX2                !
 ! D82   D(15,17,37,38)        109.4395         estimate D2E/DX2                !
 ! D83   D(15,17,37,45)       -132.1086         estimate D2E/DX2                !
 ! D84   D(16,18,19,13)         21.3659         estimate D2E/DX2                !
 ! D85   D(16,18,19,20)        -28.0134         estimate D2E/DX2                !
 ! D86   D(16,18,19,22)       -179.7796         estimate D2E/DX2                !
 ! D87   D(16,18,19,24)       -141.0186         estimate D2E/DX2                !
 ! D88   D(16,18,19,43)         87.2304         estimate D2E/DX2                !
 ! D89   D(39,18,19,13)       -175.0436         estimate D2E/DX2                !
 ! D90   D(39,18,19,20)        135.5771         estimate D2E/DX2                !
 ! D91   D(39,18,19,22)        -16.1891         estimate D2E/DX2                !
 ! D92   D(39,18,19,24)         22.5719         estimate D2E/DX2                !
 ! D93   D(39,18,19,43)       -109.1791         estimate D2E/DX2                !
 ! D94   D(16,18,39,31)         19.7241         estimate D2E/DX2                !
 ! D95   D(16,18,39,40)        136.5205         estimate D2E/DX2                !
 ! D96   D(16,18,39,58)       -102.9643         estimate D2E/DX2                !
 ! D97   D(19,18,39,31)       -143.901          estimate D2E/DX2                !
 ! D98   D(19,18,39,40)        -27.1047         estimate D2E/DX2                !
 ! D99   D(19,18,39,58)         93.4106         estimate D2E/DX2                !
 ! D100  D(13,19,20,21)        -85.5887         estimate D2E/DX2                !
 ! D101  D(18,19,20,21)        -36.7749         estimate D2E/DX2                !
 ! D102  D(22,19,20,21)        115.5112         estimate D2E/DX2                !
 ! D103  D(24,19,20,21)         79.4686         estimate D2E/DX2                !
 ! D104  D(13,19,22,23)         79.1572         estimate D2E/DX2                !
 ! D105  D(13,19,22,26)        -37.9339         estimate D2E/DX2                !
 ! D106  D(18,19,22,23)        -17.6523         estimate D2E/DX2                !
 ! D107  D(18,19,22,26)       -134.7434         estimate D2E/DX2                !
 ! D108  D(20,19,22,23)        171.1191         estimate D2E/DX2                !
 ! D109  D(20,19,22,26)         54.028          estimate D2E/DX2                !
 ! D110  D(43,19,22,23)        128.1269         estimate D2E/DX2                !
 ! D111  D(43,19,22,26)         11.0358         estimate D2E/DX2                !
 ! D112  D(13,19,24,25)         46.0714         estimate D2E/DX2                !
 ! D113  D(13,19,24,87)        -78.4544         estimate D2E/DX2                !
 ! D114  D(18,19,24,25)        153.8255         estimate D2E/DX2                !
 ! D115  D(18,19,24,87)         29.2998         estimate D2E/DX2                !
 ! D116  D(20,19,24,25)         -8.857          estimate D2E/DX2                !
 ! D117  D(20,19,24,87)       -133.3827         estimate D2E/DX2                !
 ! D118  D(43,19,24,25)        -51.0609         estimate D2E/DX2                !
 ! D119  D(43,19,24,87)       -175.5866         estimate D2E/DX2                !
 ! D120  D(13,19,43,14)         -7.8705         estimate D2E/DX2                !
 ! D121  D(13,19,43,26)        156.4462         estimate D2E/DX2                !
 ! D122  D(13,19,43,28)       -177.9094         estimate D2E/DX2                !
 ! D123  D(13,19,43,44)         83.4247         estimate D2E/DX2                !
 ! D124  D(18,19,43,14)        -73.05           estimate D2E/DX2                !
 ! D125  D(18,19,43,26)         91.2666         estimate D2E/DX2                !
 ! D126  D(18,19,43,28)        116.911          estimate D2E/DX2                !
 ! D127  D(18,19,43,44)         18.2452         estimate D2E/DX2                !
 ! D128  D(22,19,43,14)       -172.0531         estimate D2E/DX2                !
 ! D129  D(22,19,43,26)         -7.7364         estimate D2E/DX2                !
 ! D130  D(22,19,43,28)         17.908          estimate D2E/DX2                !
 ! D131  D(22,19,43,44)        -80.7579         estimate D2E/DX2                !
 ! D132  D(24,19,43,14)        153.8537         estimate D2E/DX2                !
 ! D133  D(24,19,43,26)        -41.8296         estimate D2E/DX2                !
 ! D134  D(24,19,43,28)        -16.1852         estimate D2E/DX2                !
 ! D135  D(24,19,43,44)       -114.851          estimate D2E/DX2                !
 ! D136  D(19,20,21,30)         -8.4905         estimate D2E/DX2                !
 ! D137  D(19,20,21,71)        172.0472         estimate D2E/DX2                !
 ! D138  D(43,20,21,30)       -171.683          estimate D2E/DX2                !
 ! D139  D(43,20,21,71)          8.8546         estimate D2E/DX2                !
 ! D140  D(21,20,43,14)         73.1988         estimate D2E/DX2                !
 ! D141  D(21,20,43,26)       -137.0088         estimate D2E/DX2                !
 ! D142  D(21,20,43,28)        -99.6645         estimate D2E/DX2                !
 ! D143  D(21,20,43,44)        149.4226         estimate D2E/DX2                !
 ! D144  D(20,21,71,72)        176.839          estimate D2E/DX2                !
 ! D145  D(20,21,71,73)         -4.0358         estimate D2E/DX2                !
 ! D146  D(30,21,71,72)         -2.6315         estimate D2E/DX2                !
 ! D147  D(30,21,71,73)        176.4937         estimate D2E/DX2                !
 ! D148  D(23,22,24,25)       -171.6496         estimate D2E/DX2                !
 ! D149  D(23,22,24,87)         -5.8519         estimate D2E/DX2                !
 ! D150  D(26,22,24,25)         -0.8034         estimate D2E/DX2                !
 ! D151  D(26,22,24,87)        164.9943         estimate D2E/DX2                !
 ! D152  D(19,22,26,27)         97.6505         estimate D2E/DX2                !
 ! D153  D(19,22,26,28)        -87.6851         estimate D2E/DX2                !
 ! D154  D(19,22,26,43)        -13.8799         estimate D2E/DX2                !
 ! D155  D(23,22,26,27)        -10.7539         estimate D2E/DX2                !
 ! D156  D(23,22,26,28)        163.9105         estimate D2E/DX2                !
 ! D157  D(23,22,26,43)       -122.2843         estimate D2E/DX2                !
 ! D158  D(24,22,26,27)        178.0738         estimate D2E/DX2                !
 ! D159  D(24,22,26,28)         -7.2618         estimate D2E/DX2                !
 ! D160  D(24,22,26,43)         66.5434         estimate D2E/DX2                !
 ! D161  D(19,24,87,88)        -92.6889         estimate D2E/DX2                !
 ! D162  D(19,24,87,89)         90.9967         estimate D2E/DX2                !
 ! D163  D(22,24,87,88)        -16.5311         estimate D2E/DX2                !
 ! D164  D(22,24,87,89)        167.1545         estimate D2E/DX2                !
 ! D165  D(25,24,87,88)        149.7345         estimate D2E/DX2                !
 ! D166  D(25,24,87,89)        -26.5798         estimate D2E/DX2                !
 ! D167  D(22,26,28,29)         -7.9545         estimate D2E/DX2                !
 ! D168  D(22,26,28,86)       -166.5638         estimate D2E/DX2                !
 ! D169  D(27,26,28,29)        166.6221         estimate D2E/DX2                !
 ! D170  D(27,26,28,86)          8.0127         estimate D2E/DX2                !
 ! D171  D(22,26,43,14)         42.7826         estimate D2E/DX2                !
 ! D172  D(22,26,43,19)         11.7421         estimate D2E/DX2                !
 ! D173  D(22,26,43,20)        -29.5315         estimate D2E/DX2                !
 ! D174  D(22,26,43,44)        131.255          estimate D2E/DX2                !
 ! D175  D(27,26,43,14)        -78.591          estimate D2E/DX2                !
 ! D176  D(27,26,43,19)       -109.6315         estimate D2E/DX2                !
 ! D177  D(27,26,43,20)       -150.9051         estimate D2E/DX2                !
 ! D178  D(27,26,43,44)          9.8814         estimate D2E/DX2                !
 ! D179  D(29,28,43,19)         78.9971         estimate D2E/DX2                !
 ! D180  D(29,28,43,20)         33.2585         estimate D2E/DX2                !
 ! D181  D(29,28,43,44)       -165.5004         estimate D2E/DX2                !
 ! D182  D(86,28,43,19)       -157.6122         estimate D2E/DX2                !
 ! D183  D(86,28,43,20)        156.6493         estimate D2E/DX2                !
 ! D184  D(86,28,43,44)        -42.1096         estimate D2E/DX2                !
 ! D185  D(32,31,39,18)         92.523          estimate D2E/DX2                !
 ! D186  D(32,31,39,40)        -23.5061         estimate D2E/DX2                !
 ! D187  D(32,31,39,58)       -145.187          estimate D2E/DX2                !
 ! D188  D(33,31,39,18)       -141.5775         estimate D2E/DX2                !
 ! D189  D(33,31,39,40)        102.3934         estimate D2E/DX2                !
 ! D190  D(33,31,39,58)        -19.2876         estimate D2E/DX2                !
 ! D191  D(42,31,39,18)        -23.8269         estimate D2E/DX2                !
 ! D192  D(42,31,39,40)       -139.856          estimate D2E/DX2                !
 ! D193  D(42,31,39,58)         98.463          estimate D2E/DX2                !
 ! D194  D(32,31,42,16)        -99.8647         estimate D2E/DX2                !
 ! D195  D(33,31,42,16)        142.3067         estimate D2E/DX2                !
 ! D196  D(39,31,42,16)         19.6573         estimate D2E/DX2                !
 ! D197  D(35,34,37,17)        121.9012         estimate D2E/DX2                !
 ! D198  D(35,34,37,38)          9.2985         estimate D2E/DX2                !
 ! D199  D(35,34,37,45)       -111.2555         estimate D2E/DX2                !
 ! D200  D(36,34,37,17)       -112.7207         estimate D2E/DX2                !
 ! D201  D(36,34,37,38)        134.6766         estimate D2E/DX2                !
 ! D202  D(36,34,37,45)         14.1226         estimate D2E/DX2                !
 ! D203  D(41,34,37,17)          4.7288         estimate D2E/DX2                !
 ! D204  D(41,34,37,38)       -107.8739         estimate D2E/DX2                !
 ! D205  D(41,34,37,45)        131.572          estimate D2E/DX2                !
 ! D206  D(35,34,41,15)       -123.149          estimate D2E/DX2                !
 ! D207  D(36,34,41,15)        119.432          estimate D2E/DX2                !
 ! D208  D(37,34,41,15)         -2.0148         estimate D2E/DX2                !
 ! D209  D(17,37,45,46)         62.7856         estimate D2E/DX2                !
 ! D210  D(17,37,45,50)       -176.5814         estimate D2E/DX2                !
 ! D211  D(17,37,45,54)        -58.2347         estimate D2E/DX2                !
 ! D212  D(34,37,45,46)        -57.6252         estimate D2E/DX2                !
 ! D213  D(34,37,45,50)         63.0078         estimate D2E/DX2                !
 ! D214  D(34,37,45,54)       -178.6455         estimate D2E/DX2                !
 ! D215  D(38,37,45,46)       -179.5119         estimate D2E/DX2                !
 ! D216  D(38,37,45,50)        -58.879          estimate D2E/DX2                !
 ! D217  D(38,37,45,54)         59.4677         estimate D2E/DX2                !
 ! D218  D(18,39,58,59)         61.638          estimate D2E/DX2                !
 ! D219  D(18,39,58,63)        -59.0629         estimate D2E/DX2                !
 ! D220  D(18,39,58,67)       -177.4835         estimate D2E/DX2                !
 ! D221  D(31,39,58,59)        -53.8926         estimate D2E/DX2                !
 ! D222  D(31,39,58,63)       -174.5935         estimate D2E/DX2                !
 ! D223  D(31,39,58,67)         66.9859         estimate D2E/DX2                !
 ! D224  D(40,39,58,59)       -176.987          estimate D2E/DX2                !
 ! D225  D(40,39,58,63)         62.3121         estimate D2E/DX2                !
 ! D226  D(40,39,58,67)        -56.1085         estimate D2E/DX2                !
 ! D227  D(37,45,46,47)        -56.9794         estimate D2E/DX2                !
 ! D228  D(37,45,46,48)         64.082          estimate D2E/DX2                !
 ! D229  D(37,45,46,49)       -176.4379         estimate D2E/DX2                !
 ! D230  D(50,45,46,47)       -176.5244         estimate D2E/DX2                !
 ! D231  D(50,45,46,48)        -55.463          estimate D2E/DX2                !
 ! D232  D(50,45,46,49)         64.0171         estimate D2E/DX2                !
 ! D233  D(54,45,46,47)         64.0335         estimate D2E/DX2                !
 ! D234  D(54,45,46,48)       -174.9051         estimate D2E/DX2                !
 ! D235  D(54,45,46,49)        -55.425          estimate D2E/DX2                !
 ! D236  D(37,45,50,51)         57.9959         estimate D2E/DX2                !
 ! D237  D(37,45,50,52)        177.5706         estimate D2E/DX2                !
 ! D238  D(37,45,50,53)        -62.9487         estimate D2E/DX2                !
 ! D239  D(46,45,50,51)        179.7942         estimate D2E/DX2                !
 ! D240  D(46,45,50,52)        -60.6311         estimate D2E/DX2                !
 ! D241  D(46,45,50,53)         58.8497         estimate D2E/DX2                !
 ! D242  D(54,45,50,51)        -60.5578         estimate D2E/DX2                !
 ! D243  D(54,45,50,52)         59.0169         estimate D2E/DX2                !
 ! D244  D(54,45,50,53)        178.4976         estimate D2E/DX2                !
 ! D245  D(37,45,54,55)         62.0978         estimate D2E/DX2                !
 ! D246  D(37,45,54,56)       -177.7833         estimate D2E/DX2                !
 ! D247  D(37,45,54,57)        -58.396          estimate D2E/DX2                !
 ! D248  D(46,45,54,55)        -60.3145         estimate D2E/DX2                !
 ! D249  D(46,45,54,56)         59.8044         estimate D2E/DX2                !
 ! D250  D(46,45,54,57)        179.1917         estimate D2E/DX2                !
 ! D251  D(50,45,54,55)        179.7683         estimate D2E/DX2                !
 ! D252  D(50,45,54,56)        -60.1128         estimate D2E/DX2                !
 ! D253  D(50,45,54,57)         59.2745         estimate D2E/DX2                !
 ! D254  D(39,58,59,60)        -61.3755         estimate D2E/DX2                !
 ! D255  D(39,58,59,61)         60.3577         estimate D2E/DX2                !
 ! D256  D(39,58,59,62)        179.8321         estimate D2E/DX2                !
 ! D257  D(63,58,59,60)         60.1272         estimate D2E/DX2                !
 ! D258  D(63,58,59,61)       -178.1395         estimate D2E/DX2                !
 ! D259  D(63,58,59,62)        -58.6652         estimate D2E/DX2                !
 ! D260  D(67,58,59,60)        178.9208         estimate D2E/DX2                !
 ! D261  D(67,58,59,61)        -59.3459         estimate D2E/DX2                !
 ! D262  D(67,58,59,62)         60.1284         estimate D2E/DX2                !
 ! D263  D(39,58,63,64)        -59.6675         estimate D2E/DX2                !
 ! D264  D(39,58,63,65)         61.941          estimate D2E/DX2                !
 ! D265  D(39,58,63,66)       -178.5457         estimate D2E/DX2                !
 ! D266  D(59,58,63,64)        177.9433         estimate D2E/DX2                !
 ! D267  D(59,58,63,65)        -60.4482         estimate D2E/DX2                !
 ! D268  D(59,58,63,66)         59.0651         estimate D2E/DX2                !
 ! D269  D(67,58,63,64)         58.329          estimate D2E/DX2                !
 ! D270  D(67,58,63,65)        179.9375         estimate D2E/DX2                !
 ! D271  D(67,58,63,66)        -60.5493         estimate D2E/DX2                !
 ! D272  D(39,58,67,68)         58.1042         estimate D2E/DX2                !
 ! D273  D(39,58,67,69)        177.4785         estimate D2E/DX2                !
 ! D274  D(39,58,67,70)        -63.0812         estimate D2E/DX2                !
 ! D275  D(59,58,67,68)        179.9561         estimate D2E/DX2                !
 ! D276  D(59,58,67,69)        -60.6696         estimate D2E/DX2                !
 ! D277  D(59,58,67,70)         58.7707         estimate D2E/DX2                !
 ! D278  D(63,58,67,68)        -61.2219         estimate D2E/DX2                !
 ! D279  D(63,58,67,69)         58.1524         estimate D2E/DX2                !
 ! D280  D(63,58,67,70)        177.5927         estimate D2E/DX2                !
 ! D281  D(21,71,72,74)        179.2131         estimate D2E/DX2                !
 ! D282  D(21,71,72,75)         -0.6517         estimate D2E/DX2                !
 ! D283  D(73,71,72,74)          0.0278         estimate D2E/DX2                !
 ! D284  D(73,71,72,75)       -179.837          estimate D2E/DX2                !
 ! D285  D(21,71,73,76)       -179.1308         estimate D2E/DX2                !
 ! D286  D(21,71,73,77)          0.4006         estimate D2E/DX2                !
 ! D287  D(72,71,73,76)          0.0054         estimate D2E/DX2                !
 ! D288  D(72,71,73,77)        179.5368         estimate D2E/DX2                !
 ! D289  D(71,72,74,78)         -0.038          estimate D2E/DX2                !
 ! D290  D(71,72,74,79)       -179.9312         estimate D2E/DX2                !
 ! D291  D(75,72,74,78)        179.8272         estimate D2E/DX2                !
 ! D292  D(75,72,74,79)         -0.0659         estimate D2E/DX2                !
 ! D293  D(71,73,76,78)         -0.028          estimate D2E/DX2                !
 ! D294  D(71,73,76,80)        179.8802         estimate D2E/DX2                !
 ! D295  D(77,73,76,78)       -179.5554         estimate D2E/DX2                !
 ! D296  D(77,73,76,80)          0.3527         estimate D2E/DX2                !
 ! D297  D(72,74,78,76)          0.0147         estimate D2E/DX2                !
 ! D298  D(72,74,78,85)       -179.9347         estimate D2E/DX2                !
 ! D299  D(79,74,78,76)        179.9057         estimate D2E/DX2                !
 ! D300  D(79,74,78,85)         -0.0436         estimate D2E/DX2                !
 ! D301  D(73,76,78,74)          0.0177         estimate D2E/DX2                !
 ! D302  D(73,76,78,85)        179.9714         estimate D2E/DX2                !
 ! D303  D(80,76,78,74)       -179.8933         estimate D2E/DX2                !
 ! D304  D(80,76,78,85)          0.0604         estimate D2E/DX2                !
 ! D305  D(74,78,85,81)         -0.057          estimate D2E/DX2                !
 ! D306  D(76,78,85,81)        179.9923         estimate D2E/DX2                !
 ! D307  D(82,81,85,78)        -61.1746         estimate D2E/DX2                !
 ! D308  D(83,81,85,78)         61.096          estimate D2E/DX2                !
 ! D309  D(84,81,85,78)        179.9607         estimate D2E/DX2                !
 ! D310  D(24,87,88,90)       -177.7226         estimate D2E/DX2                !
 ! D311  D(24,87,88,91)         -0.3211         estimate D2E/DX2                !
 ! D312  D(89,87,88,90)         -1.3614         estimate D2E/DX2                !
 ! D313  D(89,87,88,91)        176.0401         estimate D2E/DX2                !
 ! D314  D(24,87,89,92)        178.3769         estimate D2E/DX2                !
 ! D315  D(24,87,89,93)         -1.7492         estimate D2E/DX2                !
 ! D316  D(88,87,89,92)          1.8652         estimate D2E/DX2                !
 ! D317  D(88,87,89,93)       -178.2609         estimate D2E/DX2                !
 ! D318  D(87,88,90,94)         -0.042          estimate D2E/DX2                !
 ! D319  D(87,88,90,95)        179.086          estimate D2E/DX2                !
 ! D320  D(91,88,90,94)       -177.4528         estimate D2E/DX2                !
 ! D321  D(91,88,90,95)          1.6753         estimate D2E/DX2                !
 ! D322  D(87,89,92,94)         -0.9627         estimate D2E/DX2                !
 ! D323  D(87,89,92,96)        179.6056         estimate D2E/DX2                !
 ! D324  D(93,89,92,94)        179.1644         estimate D2E/DX2                !
 ! D325  D(93,89,92,96)         -0.2673         estimate D2E/DX2                !
 ! D326  D(88,90,94,92)          0.9896         estimate D2E/DX2                !
 ! D327  D(88,90,94,97)        179.8582         estimate D2E/DX2                !
 ! D328  D(95,90,94,92)       -178.1347         estimate D2E/DX2                !
 ! D329  D(95,90,94,97)          0.734          estimate D2E/DX2                !
 ! D330  D(89,92,94,90)         -0.4924         estimate D2E/DX2                !
 ! D331  D(89,92,94,97)       -179.3605         estimate D2E/DX2                !
 ! D332  D(96,92,94,90)        178.9374         estimate D2E/DX2                !
 ! D333  D(96,92,94,97)          0.0693         estimate D2E/DX2                !
 --------------------------------------------------------------------------------
 Trust Radius=3.00D-01 FncErr=5.00D-06 GrdErr=5.00D-06 EigMax=2.50D+02 EigMin=1.00D-04
 Number of steps in this run=    500 maximum allowed number of steps=    582.
 GradGradGradGradGradGradGradGradGradGradGradGradGradGradGradGradGradGrad

 Stoichiometry    C41H46ClN4Ni2O3(4)
 Framework group  C1[X(C41H46ClN4Ni2O3)]
 Deg. of freedom   285
 Full point group                 C1      NOp   1
 Largest Abelian subgroup         C1      NOp   1
 Largest concise Abelian subgroup C1      NOp   1
                         Standard orientation:                         
 ---------------------------------------------------------------------
 Center     Atomic      Atomic             Coordinates (Angstroms)
 Number     Number       Type             X           Y           Z
 ---------------------------------------------------------------------
      1          6           0        2.441134   -2.119250    3.031227
      2          6           0        1.450112   -1.845763    3.979620
      3          6           0        0.199055   -1.313580    3.570203
      4          6           0        0.008500   -1.047513    2.157080
      5          6           0        2.183025   -1.836905    1.677922
      6          1           0       -0.759309   -1.236895    5.538306
      7          1           0        3.415677   -2.537582    3.318589
      8          1           0        1.624155   -2.047564    5.047779
      9          6           0       -0.890447   -1.051703    4.461588
     10          6           0       -2.243363   -0.422646    2.562312
     11          6           0       -2.115290   -0.626036    3.950887
     12          1           0       -2.993026   -0.484606    4.598078
     13          7           0       -1.174635   -0.547899    1.694833
     14          7           0        0.989903   -1.322928    1.260010
     15          6           0        3.139055   -2.114159    0.601376
     16          6           0       -3.477152   -0.195460    1.853813
     17          7           0        3.105274   -1.538345   -0.561447
     18          7           0       -3.511009   -0.225730    0.534439
     19         28           0       -1.567470    0.068118   -0.114759
     20          6           0        0.242796    0.642327   -0.172990
     21          6           0        0.628061    1.849419    0.301821
     22          6           0       -1.799247    0.000619   -2.172811
     23          1           0       -2.779627   -0.483380   -2.302550
     24          6           0       -1.767153    1.386041   -1.920789
     25          1           0       -0.791228    1.893153   -1.930274
     26          6           0       -0.657334   -0.870586   -2.470685
     27          1           0       -0.909498   -1.934786   -2.602573
     28          6           0        0.676746   -0.503512   -2.705633
     29          1           0        0.973324    0.551902   -2.811269
     30          1           0       -0.212461    2.520733    0.584017
     31          6           0       -5.605586    0.328243    1.446498
     32          1           0       -5.728606    1.431979    1.422150
     33          1           0       -6.570287   -0.140311    1.715701
     34          6           0        4.741275   -3.278320   -0.454349
     35          1           0        4.624200   -4.336111   -0.759520
     36          1           0        5.816826   -3.070989   -0.278805
     37          6           0        4.056627   -2.268295   -1.428781
     38          1           0        3.431506   -2.824343   -2.165711
     39          6           0       -4.946635   -0.220549    0.156117
     40          1           0       -5.103194    0.481444   -0.688432
     41          8           0        4.041294   -3.102775    0.810488
     42          8           0       -4.644625    0.009552    2.499566
     43         28           0        0.749810   -1.073056   -0.709381
     44         17           0        0.637056   -3.409097   -1.104199
     45          6           0        5.047627   -1.376559   -2.243733
     46          6           0        5.976252   -0.566074   -1.316657
     47          1           0        5.390137    0.062705   -0.617677
     48          1           0        6.645802   -1.213817   -0.712968
     49          1           0        6.626516    0.106453   -1.914074
     50          6           0        5.892102   -2.306701   -3.145185
     51          1           0        5.247045   -2.906458   -3.822245
     52          1           0        6.583004   -1.710041   -3.776975
     53          1           0        6.514236   -3.012187   -2.554277
     54          6           0        4.245254   -0.407204   -3.135691
     55          1           0        3.621063    0.276770   -2.527368
     56          1           0        4.931881    0.209053   -3.753503
     57          1           0        3.575385   -0.960225   -3.827317
     58          6           0       -5.482392   -1.635164   -0.284165
     59          6           0       -5.372843   -2.664351    0.862276
     60          1           0       -4.318029   -2.813007    1.173158
     61          1           0       -5.959568   -2.369161    1.756556
     62          1           0       -5.759314   -3.649064    0.525850
     63          6           0       -4.676189   -2.153604   -1.492178
     64          1           0       -4.753704   -1.463603   -2.359411
     65          1           0       -3.605888   -2.284577   -1.236105
     66          1           0       -5.068437   -3.138452   -1.821130
     67          6           0       -6.960072   -1.473954   -0.708825
     68          1           0       -7.066195   -0.736932   -1.533275
     69          1           0       -7.362502   -2.443153   -1.070174
     70          1           0       -7.609604   -1.142689    0.128342
     71          6           0        1.941750    2.477149    0.518780
     72          6           0        1.986463    3.816007    0.981760
     73          6           0        3.183883    1.818984    0.310084
     74          6           0        3.196638    4.485182    1.230312
     75          1           0        1.039163    4.353575    1.156125
     76          6           0        4.393572    2.474004    0.554469
     77          1           0        3.184746    0.774215   -0.042425
     78          6           0        4.418910    3.812234    1.016440
     79          1           0        3.173865    5.523829    1.589867
     80          1           0        5.357550    1.966423    0.395698
     81          6           0        5.737353    5.696632    1.687022
     82          1           0        5.277210    6.411797    0.968405
     83          1           0        5.248867    5.821900    2.679640
     84          1           0        6.814649    5.928504    1.784802
     85          8           0        5.655797    4.354682    1.223058
     86          1           0        1.355218   -1.257098   -3.132379
     87          6           0       -2.925279    2.296485   -1.929374
     88          6           0       -4.171972    1.959920   -2.521218
     89          6           0       -2.780258    3.603878   -1.391141
     90          6           0       -5.232259    2.880206   -2.545695
     91          1           0       -4.298058    0.979410   -3.006048
     92          6           0       -3.843034    4.518505   -1.406863
     93          1           0       -1.812457    3.896868   -0.953019
     94          6           0       -5.078435    4.159987   -1.980191
     95          1           0       -6.184405    2.600101   -3.024240
     96          1           0       -3.705093    5.523422   -0.976861
     97          1           0       -5.910955    4.880742   -2.002818
 ---------------------------------------------------------------------
 Rotational constants (GHZ):           0.0736346           0.0403923           0.0361178
 General basis read from cards:  (5D, 7F)
 ======================================================================================================
                                       Pseudopotential Parameters
 ======================================================================================================
  Center     Atomic      Valence      Angular      Power
  Number     Number     Electrons     Momentum     of R      Exponent        Coefficient   SO-Coeffient
 ======================================================================================================
    1          6
                                   No pseudopotential on this center.
    2          6
                                   No pseudopotential on this center.
    3          6
                                   No pseudopotential on this center.
    4          6
                                   No pseudopotential on this center.
    5          6
                                   No pseudopotential on this center.
    6          1
                                   No pseudopotential on this center.
    7          1
                                   No pseudopotential on this center.
    8          1
                                   No pseudopotential on this center.
    9          6
                                   No pseudopotential on this center.
   10          6
                                   No pseudopotential on this center.
   11          6
                                   No pseudopotential on this center.
   12          1
                                   No pseudopotential on this center.
   13          7
                                   No pseudopotential on this center.
   14          7
                                   No pseudopotential on this center.
   15          6
                                   No pseudopotential on this center.
   16          6
                                   No pseudopotential on this center.
   17          7
                                   No pseudopotential on this center.
   18          7
                                   No pseudopotential on this center.
   19         28           18
                                      D and up 
                                                     1      469.9324331      -10.00000000    0.00000000
                                                     2       85.4236411      -69.40848050    0.00000000
                                                     2       21.2674984      -12.09510200    0.00000000
                                      S - D
                                                     0      162.1686097        3.00000000    0.00000000
                                                     1      176.5333232       22.02536180    0.00000000
                                                     2       68.9562010      443.01810880    0.00000000
                                                     2       13.5792838      145.56964110    0.00000000
                                      P - D
                                                     0       69.0181506        5.00000000    0.00000000
                                                     1      275.5955596        4.98828240    0.00000000
                                                     2       47.1315453      256.69458530    0.00000000
                                                     2       12.9874075       78.47544500    0.00000000
   20          6
                                   No pseudopotential on this center.
   21          6
                                   No pseudopotential on this center.
   22          6
                                   No pseudopotential on this center.
   23          1
                                   No pseudopotential on this center.
   24          6
                                   No pseudopotential on this center.
   25          1
                                   No pseudopotential on this center.
   26          6
                                   No pseudopotential on this center.
   27          1
                                   No pseudopotential on this center.
   28          6
                                   No pseudopotential on this center.
   29          1
                                   No pseudopotential on this center.
   30          1
                                   No pseudopotential on this center.
   31          6
                                   No pseudopotential on this center.
   32          1
                                   No pseudopotential on this center.
   33          1
                                   No pseudopotential on this center.
   34          6
                                   No pseudopotential on this center.
   35          1
                                   No pseudopotential on this center.
   36          1
                                   No pseudopotential on this center.
   37          6
                                   No pseudopotential on this center.
   38          1
                                   No pseudopotential on this center.
   39          6
                                   No pseudopotential on this center.
   40          1
                                   No pseudopotential on this center.
   41          8
                                   No pseudopotential on this center.
   42          8
                                   No pseudopotential on this center.
   43         28           18
                                      D and up 
                                                     1      469.9324331      -10.00000000    0.00000000
                                                     2       85.4236411      -69.40848050    0.00000000
                                                     2       21.2674984      -12.09510200    0.00000000
                                      S - D
                                                     0      162.1686097        3.00000000    0.00000000
                                                     1      176.5333232       22.02536180    0.00000000
                                                     2       68.9562010      443.01810880    0.00000000
                                                     2       13.5792838      145.56964110    0.00000000
                                      P - D
                                                     0       69.0181506        5.00000000    0.00000000
                                                     1      275.5955596        4.98828240    0.00000000
                                                     2       47.1315453      256.69458530    0.00000000
                                                     2       12.9874075       78.47544500    0.00000000
   44         17
                                   No pseudopotential on this center.
   45          6
                                   No pseudopotential on this center.
   46          6
                                   No pseudopotential on this center.
   47          1
                                   No pseudopotential on this center.
   48          1
                                   No pseudopotential on this center.
   49          1
                                   No pseudopotential on this center.
   50          6
                                   No pseudopotential on this center.
   51          1
                                   No pseudopotential on this center.
   52          1
                                   No pseudopotential on this center.
   53          1
                                   No pseudopotential on this center.
   54          6
                                   No pseudopotential on this center.
   55          1
                                   No pseudopotential on this center.
   56          1
                                   No pseudopotential on this center.
   57          1
                                   No pseudopotential on this center.
   58          6
                                   No pseudopotential on this center.
   59          6
                                   No pseudopotential on this center.
   60          1
                                   No pseudopotential on this center.
   61          1
                                   No pseudopotential on this center.
   62          1
                                   No pseudopotential on this center.
   63          6
[...]
 4,-0.00005367,0.00000496,-0.00001057,0.00001451,-0.00000712,-0.0000065
 0,0.00000813,0.00000188,-0.00000031,0.00000366,0.00000923,-0.00000065,
 -0.00000141,-0.00000247,0.00000368,-0.00000259,0.00000067,-0.00000766,
 -0.00000110,0.00002428,-0.00000150,0.00000158,-0.00000114,0.00000398,0
 .00001286,-0.00001669,0.00002319,0.00000856,-0.00001973,0.00003942,-0.
 00003578,0.00000369,-0.00008759,0.00003810,0.00005843,-0.00001675,0.00
 003638,-0.00004445,0.00000454,-0.00003905,0.00000896,-0.00000356,-0.00
 000393,0.00000034,0.00000079,0.00000055,-0.00000166,-0.00000168,-0.000
 00153,-0.00000038,0.00000048,-0.00000106,0.00000075,0.00000190,0.00000
 153,-0.00000102,0.00000141,0.00000317,0.00000019,-0.00000070,0.0000000
 2,0.00000058,0.00000173,0.00000060,-0.00000195,0.00000029,-0.00000111,
 0.00000071,0.00000191,0.00000192,-0.00000087,-0.00000336,-0.00000559,-
 0.00000114,0.00000452,0.00000108,-0.00000168,-0.00000239,0.00000155,0.
 00000522,0.00000217,-0.00000216,0.00000814,-0.00000306,-0.00000153,-0.
 00000243,0.00000053,0.00000148,-0.00000020,-0.00000178,0.00000013,0.00
 000474,-0.00000069,-0.00000298,0.00000065,-0.00000341,0.00000132,-0.00
 001253,0.00000927,0.00000371,0.00001321,-0.00000255,0.00000802,-0.0000
 0433,-0.00000544,-0.00000625,0.00000659,0.00000198,0.00000138,-0.00000
 428,0.00000350,-0.00000170,0.00000169,-0.00000155,-0.00000187,0.000000
 34,-0.00000358,0.00000039,0.00000454,-0.00004571,-0.00001873,-0.000006
 60,0.00002952,-0.00001801,0.00000072,0.00001170,0.00000930,0.00000354,
 0.00000988,0.00000777,0.00000555,-0.00000619,0.00000082,-0.00000358,-0
 .00000245,0.00001214,0.00000222,-0.00000663,-0.00000210,-0.00000143,-0
 .00002232,-0.00000872,-0.00000744,0.00000620,0.00000397,0.00000168,0.0
 0000203,0.00000023,0.00000024,0.00000144,-0.00002310,-0.00000686,-0.00
 000128,0.00000365,-0.00000154,-0.00000229,0.00000272,0.00000305,0.0000
 0058,0.00000176,0.00000057,0.00003417,0.00002935,0.00001468,0.00000677
 ,0.00000139,-0.00000598,0.00413565,0.00050524,-0.00114450,0.00018574,0
 .00041265,0.00056244,-0.00561307,-0.01327735,-0.00859087,-0.00064029,0
 .00212310,-0.00191548,-0.00015391,-0.00021667,0.00025877,-0.03748034,-
 0.26825132,-0.10482273,-0.00066772,0.00036378,0.00156498,0.00210557,-0
 .00189871,-0.00139697,0.00013685,-0.00020393,-0.00011422,0.03879513,0.
 28113940,-0.00000120,-0.00000167,0.00000270,0.00001028,-0.00000442,0.0
 0000185,-0.00001550,0.00000800,0.00000748,-0.00000102,0.00000259,0.000
 00586,0.00001067,-0.00000686,-0.00000495,0.00000055,-0.00000044,0.0000
 0121,0.00000130,0.00000026,0.00000094,0.00000007,0.00000057,0.00000134
 ,0.00001504,-0.00000694,-0.00000420,0.00002122,-0.00000333,0.00001297,
 -0.00001180,0.00000287,-0.00001287,-0.00000021,0.00000250,-0.00000181,
 -0.00000882,0.00000482,0.00000810,-0.00000433,0.00000133,0.00000352,-0
 .00002250,0.00001736,0.00000931,-0.00003372,0.00001457,-0.00003157,0.0
 0001894,-0.00000109,-0.00001107,0.00000340,-0.00002855,0.00003128,-0.0
 0000882,0.00000583,-0.00001942,-0.00002523,-0.00001464,-0.00000985,0.0
 0000851,0.00001854,-0.00000448,0.00003764,0.00008252,-0.00012599,0.000
 00378,0.00001472,0.00000849,-0.00016324,-0.00001207,0.00018074,0.00003
 593,-0.00000658,0.00001941,0.00004320,-0.00000225,-0.00004034,0.000008
 49,-0.00000306,0.00002391,-0.00001927,-0.00001824,-0.00001641,-0.00000
 224,0.00000195,-0.00000114,-0.00000325,-0.00000294,0.00000877,-0.00000
 514,0.00002738,-0.00000756,0.00000657,-0.00000800,-0.00000313,0.000000
 33,-0.00000623,0.00000079,-0.00000180,0.00000351,0.00000807,-0.0000003
 1,-0.00000079,-0.00000187,0.00000207,-0.00000143,-0.00000001,-0.000008
 05,0.00000156,0.00001241,0.00000020,-0.00000085,-0.00000194,0.00000924
 ,0.00001225,-0.00000570,-0.00000574,0.00000232,0.00000692,0.00002440,-
 0.00001735,-0.00000508,0.00001588,-0.00001251,0.00000451,-0.00001061,0
 .00001335,-0.00000556,0.00000301,-0.00002104,-0.00000010,-0.00000063,-
 0.00000480,0.00000184,-0.00000043,0.00000142,-0.00000064,-0.00000083,-
 0.00000145,-0.00000029,-0.00000047,-0.00000019,-0.00000006,0.00000174,
 0.00000104,-0.00000063,0.00000063,0.00000283,-0.00000052,-0.00000054,-
 0.00000069,0.00000010,0.00000167,0.00000027,-0.00000132,-0.00000040,-0
 .00000003,0.00000024,0.00000080,0.00000144,-0.00000046,-0.00000089,-0.
 00000287,0.00000127,0.00000317,0.00000111,-0.00000143,-0.00000152,-0.0
 0000035,0.00000140,0.00000512,0.00000498,0.00000204,-0.00000043,-0.000
 00297,-0.00000255,0.00000014,0.00000090,0.00000057,0.00000062,0.000001
 76,-0.00000057,-0.00000115,-0.00000313,-0.00000011,-0.00000095,-0.0000
 0016,0.00000213,0.00000066,0.00000208,-0.00000150,-0.00000029,0.000002
 73,-0.00000026,-0.00000193,-0.00000244,-0.00000199,-0.00000167,0.00000
 021,-0.00000511,0.00000278,0.00000197,0.00000346,-0.00000119,-0.000003
 78,0.00000009,0.00000174,0.00000116,0.00000019,-0.00001148,-0.00000699
 ,-0.00000219,-0.00000337,0.00000728,-0.00000439,0.00000243,-0.00000028
 ,-0.00000082,0.00000885,-0.00000212,-0.00000441,-0.00000459,-0.0000032
 8,0.00000573,0.00000198,0.00000626,0.00000004,-0.00000201,-0.00000233,
 0.00000073,-0.00001607,-0.00000599,-0.00000249,-0.00000024,0.00000085,
 0.00000369,0.00000117,-0.00000065,0.00000118,-0.00000091,-0.00001321,0
 .00000098,-0.00000137,0.00000287,-0.00000131,-0.00000065,0.00000139,-0
 .00000033,0.00000097,0.00000085,0.00000038,0.00002211,0.00001544,0.000
 00561,0.00000327,0.00000032,0.00000047,-0.00186342,-0.00175224,0.00589
 416,0.00026262,0.00051930,-0.00051882,-0.00129944,0.00080291,0.0032687
 2,-0.00390271,-0.00160591,0.00452627,0.00034205,0.00028975,-0.00078845
 ,-0.02244260,-0.10471450,-0.08480378,0.00128701,0.00141337,-0.00308850
 ,-0.00057173,-0.01069553,-0.00091253,-0.00006568,-0.00052265,-0.000053
 89,0.02692892,0.11477506,0.07908159,-0.00000286,0.00000366,0.00000243,
 -0.00000358,0.00000140,-0.00000369,0.00000596,-0.00000503,-0.00000450,
 0.00000028,-0.00000017,-0.00000859,-0.00000554,0.00000584,-0.00000027,
 -0.00000057,0.00000184,-0.00000210,-0.00000155,-0.00000028,-0.00000105
 ,-0.00000027,-0.00000002,-0.00000202,-0.00000843,0.00000352,-0.0000018
 6,-0.00001023,0.00000084,-0.00000707,0.00000795,-0.00000447,0.00000740
 ,0.00000100,-0.00000024,-0.00000077,0.00000435,0.00000425,-0.00000760,
 0.00000370,-0.00000274,-0.00000355,0.00002249,-0.00002197,0.00000133,-
 0.00001346,0.00000474,0.00005426,-0.00001687,0.00000338,0.00000539,0.0
 0000878,0.00002217,-0.00004113,-0.00000666,0.00000966,0.00000842,-0.00
 000238,-0.00004364,-0.00001724,0.00000103,0.00002783,-0.00002892,0.000
 01447,-0.00001388,-0.00002259,-0.00000086,0.00000783,-0.00002533,0.000
 09661,-0.00012394,0.00039513,-0.00000352,-0.00003329,-0.00005776,-0.00
 001964,0.00001671,0.00001286,-0.00000651,0.00000405,0.00000554,0.00000
 708,0.00001020,0.00000090,0.00000333,-0.00000102,-0.00000351,0.0000149
 5,0.00000551,0.00005715,-0.00000703,0.00001281,0.00000058,-0.00000017,
 -0.00000129,0.00000764,0.00000310,0.00000055,-0.00000173,0.00000192,-0
 .00000359,-0.00000782,0.00000048,0.00000123,0.00000190,-0.00000231,0.0
 0000128,0.00000002,0.00000656,-0.00000142,-0.00001337,0.00000031,0.000
 00024,0.00000167,0.00000163,-0.00002308,0.00001885,-0.00000552,-0.0000
 1173,0.00000774,-0.00002753,0.00002144,0.00000219,0.00002616,-0.000009
 19,-0.00002576,0.00001567,-0.00001487,0.00002071,-0.00000195,0.0000273
 0,-0.00000043,0.00000163,0.00000321,-0.00000024,0.00000020,-0.00000079
 ,0.00000035,0.00000101,0.00000073,0.00000089,-0.00000037,0.00000102,-0
 .00000031,-0.00000105,-0.00000115,0.00000060,-0.00000083,-0.00000218,-
 0.00000028,0.00000063,0.00000041,0.,-0.00000126,-0.00000048,0.00000131
 ,-0.00000029,0.00000084,-0.00000043,-0.00000071,-0.00000123,-0.0000008
 4,0.00000090,0.00000242,0.00000060,-0.00000217,-0.00000099,0.00000085,
 0.00000142,-0.00000024,-0.00000208,-0.00000341,-0.00000311,-0.00000941
 ,0.00000166,0.00000379,0.00000417,-0.00000070,-0.00000116,-0.00000030,
 0.00000048,-0.00000122,-0.00000132,0.00000099,0.00000373,-0.00000070,0
 .00000044,-0.00000001,0.00000400,-0.00000171,-0.00000160,-0.00000756,0
 .00000099,-0.00000334,0.00000079,0.00000259,0.00000399,-0.00000076,-0.
 00000169,-0.00000036,0.00000533,-0.00000201,-0.00000082,-0.00000331,0.
 00000172,0.00000302,-0.00000019,0.00000035,-0.00000109,-0.00000110,0.0
 0001621,0.00002244,0.00000682,0.00000219,-0.00000336,-0.00000211,-0.00
 000586,-0.00000642,-0.00000165,-0.00001081,0.00000460,-0.00000061,0.00
 000058,0.00000543,0.00000403,-0.00000383,-0.00000787,-0.00000193,0.000
 00265,0.00000157,0.00000012,0.00002641,0.00000965,0.00000740,-0.000001
 71,-0.00000250,-0.00000117,-0.00000268,0.00000014,-0.00000067,0.000000
 65,0.00001993,0.00000498,0.00000173,-0.00000317,0.00000086,0.00000190,
 -0.00000243,-0.00000156,-0.00000157,-0.00000136,-0.00000071,-0.0000348
 3,-0.00002464,-0.00001246,-0.00000269,0.00000125,-0.00000014,-0.000167
 71,-0.00072366,0.00001682,0.00167308,-0.00050910,-0.00206600,-0.002562
 97,-0.00184539,-0.00402614,0.00625316,-0.00534803,-0.00106845,0.000187
 06,-0.00025600,-0.00011365,-0.01344805,0.01908274,0.00136687,-0.000784
 91,0.00091571,0.00007208,-0.19637489,0.13696570,-0.00465219,0.00011328
 ,-0.00027939,0.00133883,0.00068474,-0.00050693,0.00139116,0.20433965,0
 .00000457,-0.00000243,-0.00000305,-0.00000179,0.00000006,0.00000323,0.
 00000112,0.00000140,0.00000279,-0.00000169,0.00000087,0.00000903,-0.00
 000212,-0.00000052,0.00000373,0.00000057,-0.00000089,0.00000178,0.0000
 0117,0.00000025,0.00000095,0.00000027,-0.00000022,0.00000172,0.0000021
 0,-0.00000143,0.00000384,0.00000206,-0.00000110,0.00000540,-0.00000481
 ,0.00000162,-0.00000139,-0.00000008,0.00000035,0.00000230,-0.00000917,
 0.00000705,0.00000723,0.00000267,-0.00000576,0.00000762,-0.00001453,0.
 00001739,-0.00001352,0.00004405,-0.00001296,-0.00006471,0.00001980,-0.
 00000520,0.00000304,-0.00002887,-0.00001263,0.00003455,0.00004238,-0.0
 0001897,-0.00002060,-0.00004446,-0.00004506,-0.00002840,-0.00000129,0.
 00005430,0.00001653,0.00003194,-0.00005042,0.00003797,0.00001179,0.000
 06281,-0.00002836,-0.00000339,-0.00007178,0.00024549,0.00001622,-0.000
 03588,-0.00002182,-0.00002008,0.00004526,0.00002297,0.00000370,-0.0000
 0228,-0.00000150,0.00002359,-0.00001113,0.00000363,-0.00000281,-0.0000
 0078,-0.00000481,0.00001599,-0.00000878,0.00001024,0.00003662,-0.00005
 531,0.00000848,0.00001038,0.00001606,0.00000866,-0.00000666,-0.0000037
 1,0.00000828,-0.00000081,0.00000263,0.00000569,-0.00000041,-0.00000113
 ,-0.00000144,0.00000195,-0.00000108,0.00000019,-0.00000395,-0.00000007
 ,0.00001180,-0.00000063,0.00000068,-0.00000083,-0.00000068,0.00000999,
 -0.00001020,0.00004146,0.00001569,-0.00004859,0.00002238,-0.00001982,0
 .00000126,-0.00007226,0.00003098,0.00003588,-0.00000998,0.00002021,-0.
 00001535,0.00000222,-0.00002137,0.00000382,-0.00000197,-0.00000137,-0.
 00000015,0.00000016,0.00000013,-0.00000049,-0.00000073,-0.00000049,-0.
 00000067,0.00000057,-0.00000093,0.00000056,0.00000055,0.00000089,-0.00
 000041,0.00000065,0.00000143,0.00000032,-0.00000053,-0.00000004,0.0000
 0003,0.00000073,0.00000041,-0.00000097,0.00000053,-0.00000093,0.000000
 52,0.00000087,0.00000062,-0.00000002,-0.00000091,-0.00000212,-0.000001
 09,0.00000149,0.00000068,-0.00000040,-0.00000126,0.00000095,0.00000244
 ,0.00002097,-0.00000558,0.00001154,-0.00001225,-0.00000110,-0.00000143
 ,-0.00000121,0.00000290,-0.00000205,-0.00000049,-0.00000087,0.00000723
 ,-0.00000007,-0.00000382,0.00000089,-0.00001435,0.00000973,-0.00003783
 ,0.00001765,0.00001186,0.00002011,-0.00000412,0.00000547,0.00000074,-0
 .00000318,-0.00001194,0.00001340,0.00000471,-0.00000010,0.00000096,0.0
 0000926,-0.00000335,-0.00001101,-0.00000436,0.00000198,-0.00000086,-0.
 00000641,-0.00000423,0.00001345,-0.00000898,-0.00000884,-0.00000470,0.
 00000243,0.00000022,0.00000154,0.00000155,0.00000085,-0.00000017,0.000
 00526,-0.00000169,0.00000149,0.00000014,-0.00000006,-0.00000102,0.0000
 0089,0.00000575,0.00000212,-0.00000179,-0.00000109,-0.00000075,-0.0000
 1534,-0.00000596,-0.00000468,0.00000014,0.00000133,-0.00000042,0.00000
 128,-0.00000027,0.00000006,-0.00000073,-0.00000966,-0.00000362,-0.0000
 0093,0.00000146,0.00000006,-0.00000119,0.00000139,0.00000092,0.0000010
 6,0.00000072,0.00000039,0.00001975,0.00001293,0.00000738,0.00000435,0.
 00000237,-0.00000674,-0.00084470,-0.00013995,0.00005930,-0.00146986,-0
 .00257762,-0.00430022,-0.00085644,0.00143198,-0.00229347,0.02042156,-0
 .01237795,0.00134880,0.00098306,-0.00069695,0.00001762,-0.00691170,0.0
 0719096,-0.00099348,-0.00036794,0.00022144,-0.00008921,0.13714076,-0.1
 7652609,-0.00660389,-0.00062124,0.00054593,0.00155257,-0.00020151,0.00
 011419,0.00143141,-0.14739470,0.18291756,-0.00000494,0.00000110,0.0000
 0534,0.00001101,-0.00000413,-0.00000077,-0.00001476,0.00000503,0.00000
 490,0.00000105,0.00000082,-0.00000248,0.00001329,-0.00000429,-0.000008
 84,0.00000026,0.00000038,-0.00000021,0.00000010,-0.00000012,-0.0000000
 8,-0.00000011,0.00000045,-0.00000021,0.00001410,-0.00000549,-0.0000055
 8,0.00001819,-0.00000295,0.00000958,-0.00000753,0.00000236,-0.00001100
 ,-0.00000006,0.00000159,-0.00000274,0.00000618,-0.00001261,0.00000589,
 -0.00001135,0.00000580,-0.00000264,-0.00000842,-0.00000112,0.00002067,
 -0.00006021,0.00001815,0.00000991,-0.00000384,0.00000480,-0.00001178,0
 .00002077,-0.00000151,0.00000738,-0.00005083,0.00002541,0.00000060,0.0
 0001526,0.00003570,0.00003308,0.00001340,-0.00005952,-0.00003233,-0.00
 009524,0.00001851,0.00000406,-0.00001029,0.00003135,0.00006290,0.00010
 892,0.00050383,-0.00065894,0.00009740,0.00001765,0.00004770,0.00005541
 ,-0.00000445,-0.00001441,-0.00000180,0.00000168,-0.00000333,-0.0000138
 2,-0.00001276,-0.00000938,0.00000045,0.00000254,0.00000768,-0.00002160
 ,0.00002156,0.00000279,-0.00001621,0.00003770,-0.00002265,-0.00000564,
 -0.00000591,-0.00001059,0.00000286,-0.00000172,-0.00000055,-0.00000090
 ,0.00000086,0.00000180,-0.00000004,0.00000004,-0.00000032,0.00000009,-
 0.00000009,-0.00000022,-0.00000295,0.00000064,-0.00000046,0.00000049,-
 0.00000093,-0.00000075,-0.00001553,0.00000875,-0.00000449,-0.00000070,
 0.00000927,-0.00001974,0.00000257,0.00000107,-0.00000448,0.00006372,-0
 .00002580,-0.00000240,0.00000714,-0.00000487,-0.00000259,0.00000136,0.
 00000177,-0.00000220,0.00000056,-0.00000164,0.00000110,-0.00000024,0.0
 0000066,-0.00000017,0.00000003,-0.00000043,0.00000002,-0.00000046,0.00
 000030,-0.00000028,0.00000051,0.00000012,-0.00000004,0.00000007,0.0000
 0077,-0.00000034,-0.00000012,-0.00000041,-0.00000005,0.00000050,-0.000
 00001,-0.00000016,-0.00000038,0.00000036,-0.00000012,0.00000021,0.0000
 0047,-0.00000029,-0.00000003,-0.00000058,0.00000090,0.00000087,0.00000
 030,-0.00000029,-0.00000033,-0.00000071,-0.00000027,0.00001054,0.00000
 034,-0.00000662,-0.00000430,-0.00000021,0.00000073,0.00000134,-0.00000
 040,0.00000021,0.00000018,0.00000068,-0.00000030,-0.00000024,-0.000002
 77,0.00000026,-0.00000592,-0.00000258,-0.00000946,0.00000652,0.0000124
 3,0.00000688,0.00000003,-0.00000082,0.00000111,-0.00000013,-0.00000718
 ,0.00000368,-0.00000136,-0.00000015,0.00000236,0.00000310,0.00000115,0
 .00000429,0.00000051,-0.00000471,-0.00000027,0.00000220,0.00000294,-0.
 00000316,-0.00000471,0.00001352,0.00000631,0.00000182,-0.00000218,-0.0
 0000318,-0.00000358,-0.00000257,0.00000078,0.00000170,0.00000155,-0.00
 000199,-0.00000128,0.00000088,0.00000373,-0.00000010,0.00000211,-0.000
 00119,-0.00000041,-0.00000051,0.00000109,-0.00000113,0.00000011,0.0000
 0098,-0.00000061,-0.00000037,0.00000127,-0.00000022,-0.00000024,0.0000
 0007,-0.00000046,-0.00000027,0.00000203,-0.00000027,0.00000046,-0.0000
 0034,0.00000034,-0.00000003,-0.00000066,0.00000004,0.,0.00000007,0.000
 00111,0.00000008,-0.00000094,0.00000444,-0.00000136,0.00000701,0.00000
 496,-0.00029557,-0.00106608,-0.00235581,-0.00386222,0.00407231,-0.0036
 3573,-0.00256278,0.00425137,0.00919976,-0.00851102,0.00338230,0.000401
 28,-0.00050744,0.00012887,-0.00854625,0.00850012,0.00367396,-0.0004357
 4,0.00038314,0.00017183,-0.00497652,-0.00639147,-0.03906203,0.00128767
 ,0.00168809,-0.00255429,0.00151277,0.00131916,-0.00264906,0.00742599,0
 .00962036,0.03024793\\-0.00000328,-0.00000568,0.00000524,0.00000003,0.
 00000003,-0.00000945,-0.00000073,-0.00000157,0.00001316,-0.00000949,0.
 00000966,-0.00002610,0.00000025,0.00001206,-0.00001412,-0.00000224,0.0
 0000078,0.00000056,-0.00000147,-0.00000019,0.00000333,0.00000002,-0.00
 000121,0.00000088,0.00000185,-0.00000158,-0.00000455,0.00000269,-0.000
 00341,-0.00001616,-0.00000053,0.00000388,0.00000500,0.00000061,-0.0000
 0104,0.00000079,-0.00000966,-0.00001832,0.00003163,0.00001365,-0.00000
 174,0.00000470,0.00000858,-0.00000916,-0.00000872,0.00001255,-0.000003
 98,-0.00001835,-0.00000848,-0.00000679,0.00000868,-0.00000177,-0.00000
 771,0.00002996,-0.00001191,0.00004047,-0.00006967,-0.00000418,-0.00000
 170,0.00000494,-0.00001277,0.00000380,-0.00000660,0.00000679,0.0000058
 7,0.00003565,-0.00000321,0.00000470,-0.00000421,0.00000434,-0.00001026
 ,0.00000798,0.00000049,0.00000158,-0.00000280,0.00002526,-0.00001597,0
 .00000282,-0.00001249,0.00000360,-0.00000456,0.00000509,0.00000056,0.0
 0002642,-0.00000055,-0.00000139,-0.00000139,0.00000429,-0.00000292,-0.
 00000255,0.00000378,0.00000288,0.00000051,0.00000068,0.00000254,-0.000
 00120,-0.00000040,0.00000187,-0.00000110,-0.00000123,-0.00000783,0.000
 01735,0.00000192,-0.00000253,0.00000162,-0.00000025,0.00000138,-0.0000
 0649,-0.00000439,-0.00000602,-0.00000399,-0.00000191,0.00000179,0.0000
 0018,-0.00000288,0.00000576,-0.00000124,0.00000029,0.00000111,0.000002
 01,-0.00001614,-0.00000454,-0.00001408,-0.00001311,0.00000440,0.000008
 84,0.00001765,0.00002409,0.00000611,-0.00000757,-0.00001199,-0.0000103
 9,-0.00000164,-0.00000509,0.00000604,-0.00000028,-0.00000118,-0.000000
 28,0.00000119,-0.00000524,-0.00000382,0.00000139,-0.00000087,-0.000000
 44,-0.00000072,-0.00000312,-0.00000043,-0.00000006,-0.00000431,0.00000
 119,-0.00000174,-0.00000236,0.00000047,-0.00000029,-0.00000264,0.,-0.0
 0000194,-0.00000358,0.00000145,0.00000264,-0.00000275,-0.00000439,-0.0
 0000107,-0.00000078,0.00000104,0.00000073,-0.00000127,0.00000043,0.000
 00085,0.00000057,0.00000136,-0.00000068,0.00000103,0.00000030,-0.00000
 129,0.00000308,0.00000052,-0.00000165,0.00000152,-0.00000009,-0.000001
 15,0.00000315,-0.00000082,-0.00000174,0.00000232,-0.00000073,0.0000001
 3,-0.00000131,-0.00000042,-0.00000148,0.00000300,-0.00000036,-0.000001
 36,0.00000307,-0.00000022,-0.00000167,0.00000317,0.00000001,-0.0000016
 8,0.00000265,-0.00000043,-0.00000097,0.00000344,-0.00000031,-0.0000006
 7,0.00000378,0.00000002,0.00000010,0.00000361,0.00000092,0.00001621,0.
 00001134,0.00000646,-0.00000503,-0.00000743,-0.00000235,-0.00000303,-0
 .00000559,-0.00000063,0.00000347,-0.00000230,0.00000013,0.00000215,-0.
 00000042,0.00000019,0.00000265,0.00000132,0.00000116,-0.00000082,-0.00
 000120,-0.00000112,0.00000469,0.00000005,0.00000166,0.00000410,-0.0000
 0177,0.00000055,-0.00000065,-0.00000124,0.00000138,0.00000333,-0.00000
 137,0.00000006,0.00000280,-0.00000304,0.00000030,0.00000302,-0.0000026
 8,0.00000039,0.00000258,-0.00000348,0.00000018,-0.00000456,-0.00000296
 ,0.,-0.00000604,-0.00000601,-0.00000240,-0.00001029,-0.00000231,0.0000
 0221,0.00000808,0.00000450,0.00000259,0.00000424,-0.00000061,-0.000000
 75,0.00000142,0.00000262,-0.00000087,-0.00000175,0.00000209,-0.0000009
 6,0.00000101,0.00000225,0.00000047,0.00000081,0.00000214,-0.00000112,0
 .00000092,0.00000401,0.00000084,0.00000095,0.00000311,-0.00000011,0.00
 000268,0.00000161,0.00000035,0.00000195,0.00000225,-0.00000026\\\@


 A CHEMICAL PHYSICIST MAKES PRECISE MEASUREMENTS ON IMPURE COMPOUNDS.
 A THEORETICAL PHYSICAL CHEMIST MAKES IMPRECISE
     MEASUREMENTS ON PURE COMPOUNDS.
 AN EXPERIMENTAL PHYSICAL CHEMIST MAKES IMPRECISE
     MEASUREMENTS ON IMPURE COMPOUNDS.
 Job cpu time:       1 days 18 hours 20 minutes 41.8 seconds.
 Elapsed time:       0 days  3 hours 33 minutes  6.4 seconds.
 File lengths (MBytes):  RWF=  18873 Int=      0 D2E=      0 Chk=    135 Scr=      1
 Normal termination of Gaussian 16 at Thu Jun  2 20:42:04 2022.
