 Entering Gaussian System, Link 0=g16
 Input=Pro_R_E_e_m06l.com
 Output=Pro_R_E_e_m06l.log
 Initial command:
 /apps/gaussian16/B.01/AVX2/g16/l1.exe "/tmp/51822075/Gau-23106.inp" -scrdir="/tmp/51822075/"
 Entering Link 1 = /apps/gaussian16/B.01/AVX2/g16/l1.exe PID=     23107.
  
 Copyright (c) 1988-2017, Gaussian, Inc.  All Rights Reserved.
  
 This is part of the Gaussian(R) 16 program.  It is based on
 the Gaussian(R) 09 system (copyright 2009, Gaussian, Inc.),
 the Gaussian(R) 03 system (copyright 2003, Gaussian, Inc.),
 the Gaussian(R) 98 system (copyright 1998, Gaussian, Inc.),
 the Gaussian(R) 94 system (copyright 1995, Gaussian, Inc.),
 the Gaussian 92(TM) system (copyright 1992, Gaussian, Inc.),
 the Gaussian 90(TM) system (copyright 1990, Gaussian, Inc.),
 the Gaussian 88(TM) system (copyright 1988, Gaussian, Inc.),
 the Gaussian 86(TM) system (copyright 1986, Carnegie Mellon
 University), and the Gaussian 82(TM) system (copyright 1983,
 Carnegie Mellon University). Gaussian is a federally registered
 trademark of Gaussian, Inc.
  
 This software contains proprietary and confidential information,
 including trade secrets, belonging to Gaussian, Inc.
  
 This software is provided under written license and may be
 used, copied, transmitted, or stored only in accord with that
 written license.
  
 The following legend is applicable only to US Government
 contracts under FAR:
  
                    RESTRICTED RIGHTS LEGEND
  
 Use, reproduction and disclosure by the US Government is
 subject to restrictions as set forth in subparagraphs (a)
 and (c) of the Commercial Computer Software - Restricted
 Rights clause in FAR 52.227-19.
  
 Gaussian, Inc.
 340 Quinnipiac St., Bldg. 40, Wallingford CT 06492
  
  
 ---------------------------------------------------------------
 Warning -- This program may not be used in any manner that
 competes with the business of Gaussian, Inc. or will provide
 assistance to any competitor of Gaussian, Inc.  The licensee
 of this program is prohibited from giving any competitor of
 Gaussian, Inc. access to this program.  By using this program,
 the user acknowledges that Gaussian, Inc. is engaged in the
 business of creating and licensing software in the field of
 computational chemistry and represents and warrants to the
 licensee that it is not a competitor of Gaussian, Inc. and that
 it will not use this program in any manner prohibited above.
 ---------------------------------------------------------------
  

 Cite this work as:
 Gaussian 16, Revision B.01,
 M. J. Frisch, G. W. Trucks, H. B. Schlegel, G. E. Scuseria, 
 M. A. Robb, J. R. Cheeseman, G. Scalmani, V. Barone, 
 G. A. Petersson, H. Nakatsuji, X. Li, M. Caricato, A. V. Marenich, 
 J. Bloino, B. G. Janesko, R. Gomperts, B. Mennucci, H. P. Hratchian, 
 J. V. Ortiz, A. F. Izmaylov, J. L. Sonnenberg, D. Williams-Young, 
 F. Ding, F. Lipparini, F. Egidi, J. Goings, B. Peng, A. Petrone, 
 T. Henderson, D. Ranasinghe, V. G. Zakrzewski, J. Gao, N. Rega, 
 G. Zheng, W. Liang, M. Hada, M. Ehara, K. Toyota, R. Fukuda, 
 J. Hasegawa, M. Ishida, T. Nakajima, Y. Honda, O. Kitao, H. Nakai, 
 T. Vreven, K. Throssell, J. A. Montgomery, Jr., J. E. Peralta, 
 F. Ogliaro, M. J. Bearpark, J. J. Heyd, E. N. Brothers, K. N. Kudin, 
 V. N. Staroverov, T. A. Keith, R. Kobayashi, J. Normand, 
 K. Raghavachari, A. P. Rendell, J. C. Burant, S. S. Iyengar, 
 J. Tomasi, M. Cossi, J. M. Millam, M. Klene, C. Adamo, R. Cammi, 
 J. W. Ochterski, R. L. Martin, K. Morokuma, O. Farkas, 
 J. B. Foresman, and D. J. Fox, Gaussian, Inc., Wallingford CT, 2016.
 
 ******************************************
 Gaussian 16:  ES64L-G16RevB.01 20-Dec-2017
                24-Aug-2022 
 ******************************************
 %nprocshared=12
 Will use up to   12 processors via shared memory.
 %mem=24GB
 --------------------------------------------------------------------
 #m06l/gen pseudo=read integral=ultrafine temperature=308 scrf=(read)
 --------------------------------------------------------------------
 1/38=1,40=2,112=308000,172=1/1;
 2/12=2,17=6,18=5,40=1/2;
 3/5=7,11=2,16=1,17=8,25=1,30=1,70=2203,74=-53,75=-5/1,2,3;
 4//1;
 5/5=2,38=5/2;
 6/7=2,8=2,9=2,10=2,28=1/1;
 99/5=1,9=1/99;
 -------------------
 Title Card Required
 -------------------
 Symbolic Z-matrix:
 Charge =  0 Multiplicity = 2
 C                     1.76196  -3.32703  -2.05878 
 C                     0.76492  -4.26798  -1.79286 
 C                    -0.47013  -3.84312  -1.21638 
 C                    -0.59286  -2.44736  -0.84024 
 C                     1.54863  -1.98016  -1.69294 
 H                    -1.53162  -5.75497  -1.26093 
 H                     2.68783  -3.60465  -2.58298 
 H                     0.89476  -5.32335  -2.07841 
 C                    -1.60326  -4.68386  -1.01634 
 C                    -2.84579  -2.75839  -0.24702 
 C                    -2.8005   -4.13672  -0.54679 
 H                    -3.70335  -4.75139  -0.42021 
 N                    -1.75375  -1.94389  -0.34794 
 N                     0.43199  -1.56791  -1.01504 
 C                     2.36885  -0.86522  -2.145 
 C                    -4.0401   -2.03117   0.1647 
 N                     2.0901    0.37312  -1.82931 
 N                    -4.02283  -0.73446   0.32363 
 Ni                   -2.01811  -0.05645   0.34775 
 C                     0.39901   0.46177   1.78039 
 C                     1.75173   0.55457   1.39627 
 C                    -1.76323  -0.33136   2.305 
 H                    -2.56968  -0.95838   2.72014 
 C                    -0.30268  -0.73402   2.42706 
 H                     0.01137  -0.79925   3.50319 
 C                    -1.86517   1.06975   2.09655 
 H                    -2.76505   1.66196   2.32998 
 C                    -0.4657    1.67226   2.22215 
 H                    -0.25564   1.75173   3.32521 
 C                    -6.17418  -1.65407   0.75741 
 H                    -6.58135  -1.91006   1.75526 
 H                    -6.99775  -1.69149   0.01533 
 C                     3.90373   0.23467  -3.35192 
 H                     4.02076   0.30989  -4.44921 
 H                     4.9032    0.30571  -2.87185 
 C                     2.87099   1.23075  -2.75576 
 H                     2.15887   1.54765  -3.5555 
 C                    -5.37338  -0.31168   0.73732 
 H                    -5.30664   0.10872   1.76745 
 O                     3.35455  -1.08079  -3.04937 
 O                    -5.20419  -2.68074   0.39131 
 Ni                    0.55636   0.35775  -0.34727 
 Cl                   -1.39881   1.21083  -1.57837 
 C                     3.46397   2.54406  -2.16715 
 C                     4.44663   2.26121  -1.01454 
 H                     3.96903   1.64587  -0.22762 
 H                     5.35689   1.72441  -1.35522 
 H                     4.7827    3.21356  -0.55374 
 C                     4.19673   3.28803  -3.30849 
 H                     3.51512   3.4953   -4.16102 
 H                     4.58455   4.26233  -2.94432 
 H                     5.0647    2.71249  -3.69516 
 C                     2.30359   3.42279  -1.65861 
 H                     1.75289   2.93418  -0.82949 
 H                     2.68648   4.39399  -1.28233 
 H                     1.5731    3.63392  -2.46746 
 C                    -5.97162   0.81498  -0.17028 
 C                    -5.9853    0.37888  -1.64997 
 H                    -4.95665   0.17188  -2.01056 
 H                    -6.60171  -0.53008  -1.81794 
 H                    -6.41286   1.18417  -2.28303 
 C                    -5.10182   2.08093  -0.0188 
 H                    -5.08462   2.43171   1.03542 
 H                    -4.0565    1.88863  -0.33665 
 H                    -5.50833   2.90575  -0.64124 
 C                    -7.40629   1.1235    0.31283 
 H                    -7.41854   1.41727   1.38454 
 H                    -7.83457   1.96537  -0.27031 
 H                    -8.09088   0.25775   0.1878 
 H                    -0.07589  -1.71614   1.97149 
 C                    -0.18535   3.0646    1.68636 
 C                     0.86702   3.82205   2.25622 
 C                    -0.98275   3.6752    0.69461 
 C                     1.12564   5.13917   1.84017 
 H                     1.47852   3.37657   3.05941 
 C                    -0.73227   4.99691   0.28257 
 H                    -1.79556   3.09571   0.2346 
 C                     0.32248   5.73383   0.84949 
 H                     1.94821   5.70885   2.30238 
 H                    -1.37099   5.45417  -0.49056 
 H                     0.51347   6.77035   0.52764 
 H                     2.12861   1.58941   1.28645 
 C                     2.83778  -0.4362    1.5999 
 C                     4.12263   0.0465    1.95414 
 C                     2.69315  -1.84794   1.51336 
 C                     5.20611  -0.80783   2.22157 
 C                     3.75942  -2.7131    1.77446 
 C                     5.03086  -2.20599   2.13335 
 H                     4.27825   1.13362   2.04777 
 H                     1.72787  -2.28004   1.21809 
 H                     6.17611  -0.37243   2.50082 
 H                     3.63242  -3.80406   1.69811 
 O                     6.00685  -3.13054   2.36719 
 C                     7.30505  -2.67061   2.72522 
 H                     7.75494  -2.03965   1.92602 
 H                     7.29084  -2.0909    3.67538 
 H                     7.92844  -3.57376   2.86433 
 
 Stoichiometry    C41H46ClN4Ni2O3(2)
 Framework group  C1[X(C41H46ClN4Ni2O3)]
 Deg. of freedom   285
 Full point group                 C1      NOp   1
 Largest Abelian subgroup         C1      NOp   1
 Largest concise Abelian subgroup C1      NOp   1
                         Standard orientation:                         
 ---------------------------------------------------------------------
 Center     Atomic      Atomic             Coordinates (Angstroms)
 Number     Number       Type             X           Y           Z
 ---------------------------------------------------------------------
      1          6           0       -1.761956   -3.327033    2.058778
      2          6           0       -0.764916   -4.267977    1.792863
      3          6           0        0.470134   -3.843119    1.216380
      4          6           0        0.592864   -2.447360    0.840238
      5          6           0       -1.548630   -1.980155    1.692935
      6          1           0        1.531616   -5.754965    1.260931
      7          1           0       -2.687832   -3.604647    2.582980
      8          1           0       -0.894756   -5.323353    2.078413
      9          6           0        1.603261   -4.683859    1.016336
     10          6           0        2.845790   -2.758385    0.247019
     11          6           0        2.800495   -4.136717    0.546792
     12          1           0        3.703347   -4.751389    0.420211
     13          7           0        1.753752   -1.943892    0.347944
     14          7           0       -0.431990   -1.567908    1.015039
     15          6           0       -2.368852   -0.865222    2.145002
     16          6           0        4.040098   -2.031166   -0.164703
     17          7           0       -2.090101    0.373124    1.829310
     18          7           0        4.022835   -0.734464   -0.323630
     19         28           0        2.018111   -0.056451   -0.347754
     20          6           0       -0.399006    0.461772   -1.780387
     21          6           0       -1.751734    0.554574   -1.396267
     22          6           0        1.763233   -0.331357   -2.304997
     23          1           0        2.569678   -0.958378   -2.720142
     24          6           0        0.302679   -0.734015   -2.427057
     25          1           0       -0.011367   -0.799246   -3.503190
     26          6           0        1.865168    1.069749   -2.096547
     27          1           0        2.765050    1.661964   -2.329977
     28          6           0        0.465698    1.672262   -2.222152
     29          1           0        0.255641    1.751726   -3.325207
     30          6           0        6.174184   -1.654066   -0.757414
     31          1           0        6.581352   -1.910060   -1.755256
     32          1           0        6.997746   -1.691486   -0.015331
     33          6           0       -3.903734    0.234674    3.351923
     34          1           0       -4.020762    0.309890    4.449213
     35          1           0       -4.903204    0.305712    2.871847
     36          6           0       -2.870986    1.230751    2.755756
     37          1           0       -2.158871    1.547652    3.555501
     38          6           0        5.373380   -0.311684   -0.737323
     39          1           0        5.306636    0.108715   -1.767447
     40          8           0       -3.354547   -1.080794    3.049372
     41          8           0        5.204193   -2.680736   -0.391313
     42         28           0       -0.556356    0.357748    0.347273
     43         17           0        1.398813    1.210833    1.578367
     44          6           0       -3.463971    2.544060    2.167146
     45          6           0       -4.446634    2.261207    1.014544
     46          1           0       -3.969032    1.645868    0.227620
     47          1           0       -5.356886    1.724407    1.355216
     48          1           0       -4.782702    3.213564    0.553738
     49          6           0       -4.196729    3.288030    3.308494
     50          1           0       -3.515118    3.495295    4.161020
     51          1           0       -4.584547    4.262328    2.944317
     52          1           0       -5.064698    2.712494    3.695162
     53          6           0       -2.303592    3.422790    1.658613
     54          1           0       -1.752890    2.934179    0.829486
     55          1           0       -2.686482    4.393988    1.282329
     56          1           0       -1.573101    3.633916    2.467462
     57          6           0        5.971622    0.814976    0.170280
     58          6           0        5.985299    0.378875    1.649972
     59          1           0        4.956650    0.171877    2.010562
     60          1           0        6.601710   -0.530081    1.817940
     61          1           0        6.412855    1.184166    2.283025
     62          6           0        5.101816    2.080933    0.018801
     63          1           0        5.084625    2.431714   -1.035418
     64          1           0        4.056498    1.888625    0.336645
     65          1           0        5.508325    2.905745    0.641240
     66          6           0        7.406290    1.123501   -0.312832
     67          1           0        7.418542    1.417269   -1.384544
     68          1           0        7.834569    1.965369    0.270311
     69          1           0        8.090877    0.257754   -0.187798
     70          1           0        0.075887   -1.716138   -1.971491
     71          6           0        0.185347    3.064600   -1.686360
     72          6           0       -0.867022    3.822045   -2.256222
     73          6           0        0.982751    3.675196   -0.694611
     74          6           0       -1.125643    5.139165   -1.840168
     75          1           0       -1.478518    3.376571   -3.059413
     76          6           0        0.732268    4.996914   -0.282570
     77          1           0        1.795556    3.095711   -0.234599
     78          6           0       -0.322482    5.733830   -0.849491
     79          1           0       -1.948205    5.708850   -2.302377
     80          1           0        1.370985    5.454168    0.490558
     81          1           0       -0.513466    6.770350   -0.527644
     82          1           0       -2.128615    1.589407   -1.286452
     83          6           0       -2.837777   -0.436199   -1.599900
     84          6           0       -4.122626    0.046502   -1.954143
     85          6           0       -2.693151   -1.847941   -1.513358
     86          6           0       -5.206108   -0.807827   -2.221567
     87          6           0       -3.759424   -2.713103   -1.774459
     88          6           0       -5.030856   -2.205992   -2.133350
     89          1           0       -4.278245    1.133618   -2.047768
     90          1           0       -1.727865   -2.280041   -1.218089
     91          1           0       -6.176112   -0.372430   -2.500816
     92          1           0       -3.632418   -3.804062   -1.698108
     93          8           0       -6.006851   -3.130538   -2.367185
     94          6           0       -7.305054   -2.670611   -2.725222
     95          1           0       -7.754935   -2.039645   -1.926021
     96          1           0       -7.290842   -2.090899   -3.675382
     97          1           0       -7.928440   -3.573762   -2.864331
 ---------------------------------------------------------------------
 Rotational constants (GHZ):           0.0761773           0.0454639           0.0376494
 General basis read from cards:  (5D, 7F)
 ======================================================================================================
                                       Pseudopotential Parameters
 ======================================================================================================
  Center     Atomic      Valence      Angular      Power
  Number     Number     Electrons     Momentum     of R      Exponent        Coefficient   SO-Coeffient
 ======================================================================================================
    1          6
                                   No pseudopotential on this center.
    2          6
                                   No pseudopotential on this center.
    3          6
                                   No pseudopotential on this center.
    4          6
                                   No pseudopotential on this center.
    5          6
                                   No pseudopotential on this center.
    6          1
                                   No pseudopotential on this center.
    7          1
                                   No pseudopotential on this center.
    8          1
                                   No pseudopotential on this center.
    9          6
                                   No pseudopotential on this center.
   10          6
                                   No pseudopotential on this center.
   11          6
                                   No pseudopotential on this center.
   12          1
                                   No pseudopotential on this center.
   13          7
                                   No pseudopotential on this center.
   14          7
                                   No pseudopotential on this center.
   15          6
                                   No pseudopotential on this center.
   16          6
                                   No pseudopotential on this center.
   17          7
                                   No pseudopotential on this center.
   18          7
                                   No pseudopotential on this center.
   19         28           18
                                      D and up 
                                                     1      469.9324331      -10.00000000    0.00000000
                                                     2       85.4236411      -69.40848050    0.00000000
                                                     2       21.2674984      -12.09510200    0.00000000
                                      S - D
                                                     0      162.1686097        3.00000000    0.00000000
                                                     1      176.5333232       22.02536180    0.00000000
                                                     2       68.9562010      443.01810880    0.00000000
                                                     2       13.5792838      145.56964110    0.00000000
                                      P - D
                                                     0       69.0181506        5.00000000    0.00000000
                                                     1      275.5955596        4.98828240    0.00000000
                                                     2       47.1315453      256.69458530    0.00000000
                                                     2       12.9874075       78.47544500    0.00000000
   20          6
                                   No pseudopotential on this center.
   21          6
                                   No pseudopotential on this center.
   22          6
                                   No pseudopotential on this center.
   23          1
                                   No pseudopotential on this center.
   24          6
                                   No pseudopotential on this center.
   25          1
                                   No pseudopotential on this center.
   26          6
                                   No pseudopotential on this center.
   27          1
                                   No pseudopotential on this center.
   28          6
                                   No pseudopotential on this center.
   29          1
                                   No pseudopotential on this center.
   30          6
                                   No pseudopotential on this center.
   31          1
                                   No pseudopotential on this center.
   32          1
                                   No pseudopotential on this center.
   33          6
                                   No pseudopotential on this center.
   34          1
                                   No pseudopotential on this center.
   35          1
                                   No pseudopotential on this center.
   36          6
                                   No pseudopotential on this center.
   37          1
                                   No pseudopotential on this center.
   38          6
                                   No pseudopotential on this center.
   39          1
                                   No pseudopotential on this center.
   40          8
                                   No pseudopotential on this center.
   41          8
                                   No pseudopotential on this center.
   42         28           18
                                      D and up 
                                                     1      469.9324331      -10.00000000    0.00000000
                                                     2       85.4236411      -69.40848050    0.00000000
                                                     2       21.2674984      -12.09510200    0.00000000
                                      S - D
                                                     0      162.1686097        3.00000000    0.00000000
                                                     1      176.5333232       22.02536180    0.00000000
                                                     2       68.9562010      443.01810880    0.00000000
                                                     2       13.5792838      145.56964110    0.00000000
                                      P - D
                                                     0       69.0181506        5.00000000    0.00000000
                                                     1      275.5955596        4.98828240    0.00000000
                                                     2       47.1315453      256.69458530    0.00000000
                                                     2       12.9874075       78.47544500    0.00000000
   43         17
                                   No pseudopotential on this center.
   44          6
                                   No pseudopotential on this center.
   45          6
                                   No pseudopotential on this center.
   46          1
                                   No pseudopotential on this center.
   47          1
                                   No pseudopotential on this center.
   48          1
                                   No pseudopotential on this center.
   49          6
                                   No pseudopotential on this center.
   50          1
                                   No pseudopotential on this center.
   51          1
                                   No pseudopotential on this center.
   52          1
                                   No pseudopotential on this center.
   53          6
                                   No pseudopotential on this center.
   54          1
                                   No pseudopotential on this center.
   55          1
                                   No pseudopotential on this center.
   56          1
                                   No pseudopotential on this center.
   57          6
                                   No pseudopotential on this center.
   58          6
                                   No pseudopotential on this center.
   59          1
                                   No pseudopotential on this center.
   60          1
                                   No pseudopotential on this center.
   61          1
                                   No pseudopotential on this center.
   62          6
                                   No pseudopotential on this center.
   63          1
                                   No pseudopotential on this center.
   64          1
                                   No pseudopotential on this center.
   65          1
                                   No pseudopotential on this center.
   66          6
                                   No pseudopotential on this center.
   67          1
                                   No pseudopotential on this center.
   68          1
                                   No pseudopotential on this center.
   69          1
                                   No pseudopotential on this center.
   70          1
                                   No pseudopotential on this center.
   71          6
                                   No pseudopotential on this center.
   72          6
                                   No pseudopotential on this center.
   73          6
                                   No pseudopotential on this center.
   74          6
                                   No pseudopotential on this center.
   75          1
                                   No pseudopotential on this center.
   76          6
                                   No pseudopotential on this center.
   77          1
                                   No pseudopotential on this center.
   78          6
                                   No pseudopotential on this center.
   79          1
                                   No pseudopotential on this center.
   80          1
                                   No pseudopotential on this center.
   81          1
                                   No pseudopotential on this center.
   82          1
                                   No pseudopotential on this center.
   83          6
                                   No pseudopotential on this center.
   84          6
                                   No pseudopotential on this center.
   85          6
                                   No pseudopotential on this center.
   86          6
                                   No pseudopotential on this center.
   87          6
                                   No pseudopotential on this center.
   88          6
                                   No pseudopotential on this center.
   89          1
                                   No pseudopotential on this center.
   90          1
                                   No pseudopotential on this center.
   91          1
                                   No pseudopotential on this center.
   92          1
                                   No pseudopotential on this center.
   93          8
                                   No pseudopotential on this center.
   94          6
                                   No pseudopotential on this center.
   95          1
                                   No pseudopotential on this center.
   96          1
                                   No pseudopotential on this center.
   97          1
                                   No pseudopotential on this center.
 ======================================================================================================
 There are  2094 symmetry adapted cartesian basis functions of A   symmetry.
 There are  1845 symmetry adapted basis functions of A   symmetry.
  1845 basis functions,  2989 primitive gaussians,  2094 cartesian basis functions
   199 alpha electrons      198 beta electrons
       nuclear repulsion energy      8544.8692336906 Hartrees.
 NAtoms=   97 NActive=   97 NUniq=   97 SFac= 1.00D+00 NAtFMM=   60 NAOKFM=T Big=T
 Integral buffers will be    131072 words long.
 Raffenetti 2 integral format.
 Two-electron integral symmetry is turned on.
 Using the following non-standard input for PCM:
 Eps=4.5
 --- end of non-standard input.
 ------------------------------------------------------------------------------
 Polarizable Continuum Model (PCM)
 =================================
 Model                : PCM.
 Atomic radii         : UFF (Universal Force Field).
 Polarization charges : Total charges.
 Charge compensation  : None.
 Solution method      : On-the-fly selection.
 Cavity type          : Scaled VdW (van der Waals Surface) (Alpha=1.100).
 Cavity algorithm     : GePol (No added spheres)
                        Default sphere list used, NSphG=   97.
                        Lebedev-Laikov grids with approx.  5.0 points / Ang**2.
                        Smoothing algorithm: York/Karplus (Gamma=1.0000).
                        Polarization charges: spherical gaussians, with
                                              point-specific exponents (IZeta= 3).
                        Self-potential: point-specific (ISelfS= 7).
                        Self-field    : sphere-specific E.n sum rule (ISelfD= 2).
 Solvent              : Water, Eps=   4.500000 Eps(inf)=   1.777849
 ------------------------------------------------------------------------------
 One-electron integrals computed using PRISM.
   1 Symmetry operations used in ECPInt.
 ECPInt:  NShTT=  274911 NPrTT=  843013 LenC2=  204145 LenP2D=  410028.
 LDataN:  DoStor=T MaxTD1= 6 Len=  172
 NBasis=  1845 RedAO= T EigKep=  6.51D-06  NBF=  1845
 NBsUse=  1845 1.00D-06 EigRej= -1.00D+00 NBFU=  1845
 ExpMin= 2.40D-02 ExpMax= 6.95D+04 ExpMxC= 2.37D+03 IAcc=3 IRadAn=         5 AccDes= 0.00D+00
 Harris functional with IExCor= 1009 and IRadAn=       5 diagonalized for initial guess.
 HarFok:  IExCor= 1009 AccDes= 0.00D+00 IRadAn=         5 IDoV= 1 UseB2=F ITyADJ=14
 ICtDFT=  3500011 ScaDFX=  1.000000  1.000000  1.000000  1.000000
 FoFCou: FMM=F IPFlag=           0 FMFlag=      100000 FMFlg1=        2001
         NFxFlg=           0 DoJE=T BraDBF=F KetDBF=T FulRan=T
         wScrn=  0.000000 ICntrl=       500 IOpCl=  0 I1Cent=   200000004 NGrid=           0
         NMat0=    1 NMatS0=      1 NMatT0=    0 NMatD0=    1 NMtDS0=    0 NMtDT0=    0
 Petite list used in FoFCou.
 Initial guess <Sx>= 0.0000 <Sy>= 0.0000 <Sz>= 0.5000 <S**2>= 0.7500 S= 0.5000
 Requested convergence on RMS density matrix=1.00D-08 within 128 cycles.
 Requested convergence on MAX density matrix=1.00D-06.
 Requested convergence on             energy=1.00D-06.
 No special actions if energy rises.
 Inv3:  Mode=1 IEnd=   104111643.
 Iteration    1 A*A^-1 deviation from unit magnitude is 4.66D-15 for    732.
 Iteration    1 A*A^-1 deviation from orthogonality  is 2.22D-15 for   3385    612.
 Iteration    1 A^-1*A deviation from unit magnitude is 4.55D-15 for    732.
 Iteration    1 A^-1*A deviation from orthogonality  is 1.63D-13 for   3745   3718.
 EnCoef did   100 forward-backward iterations
 EnCoef did   100 forward-backward iterations
 EnCoef did   100 forward-backward iterations
 EnCoef did     7 forward-backward iterations
 EnCoef did    10 forward-backward iterations
 EnCoef did   100 forward-backward iterations
 EnCoef did    16 forward-backward iterations
 EnCoef did     7 forward-backward iterations
 EnCoef did     5 forward-backward iterations
 Restarting incremental Fock formation.
 Error on total polarization charges =  0.01492
 SCF Done:  E(UM06L) =  -2834.26629714     A.U. after   34 cycles
            NFock= 34  Conv=0.27D-08     -V/T= 2.0516
 <Sx>= 0.0000 <Sy>= 0.0000 <Sz>= 0.5000 <S**2>= 1.7164 S= 0.9023
 <L.S>=  0.00000000000    
 Annihilation of the first spin contaminant:
 S**2 before annihilation     1.7164,   after     0.9986

 **********************************************************************

            Population analysis using the SCF Density.

 **********************************************************************

 Orbital symmetries:
 Alpha Orbitals:
       Occupied  (A) (A) (A) (A) (A) (A) (A) (A) (A) (A) (A) (A)
                 (A) (A) (A) (A) (A) (A) (A) (A) (A) (A) (A) (A)
                 (A) (A) (A) (A) (A) (A) (A) (A) (A) (A) (A) (A)
                 (A) (A) (A) (A) (A) (A) (A) (A) (A) (A) (A) (A)
                 (A) (A) (A) (A) (A) (A) (A) (A) (A) (A) (A) (A)
                 (A) (A) (A) (A) (A) (A) (A) (A) (A) (A) (A) (A)
                 (A) (A) (A) (A) (A) (A) (A) (A) (A) (A) (A) (A)
                 (A) (A) (A) (A) (A) (A) (A) (A) (A) (A) (A) (A)
                 (A) (A) (A) (A) (A) (A) (A) (A) (A) (A) (A) (A)
                 (A) (A) (A) (A) (A) (A) (A) (A) (A) (A) (A) (A)
                 (A) (A) (A) (A) (A) (A) (A) (A) (A) (A) (A) (A)
                 (A) (A) (A) (A) (A) (A) (A) (A) (A) (A) (A) (A)
                 (A) (A) (A) (A) (A) (A) (A) (A) (A) (A) (A) (A)
                 (A) (A) (A) (A) (A) (A) (A) (A) (A) (A) (A) (A)
                 (A) (A) (A) (A) (A) (A) (A) (A) (A) (A) (A) (A)
                 (A) (A) (A) (A) (A) (A) (A) (A) (A) (A) (A) (A)
                 (A) (A) (A) (A) (A) (A) (A)
       Virtual   (A) (A) (A) (A) (A) (A) (A) (A) (A) (A) (A) (A)
                 (A) (A) (A) (A) (A) (A) (A) (A) (A) (A) (A) (A)
                 (A) (A) (A) (A) (A) (A) (A) (A) (A) (A) (A) (A)
                 (A) (A) (A) (A) (A) (A) (A) (A) (A) (A) (A) (A)
                 (A) (A) (A) (A) (A) (A) (A) (A) (A) (A) (A) (A)
                 (A) (A) (A) (A) (A) (A) (A) (A) (A) (A) (A) (A)
                 (A) (A) (A) (A) (A) (A) (A) (A) (A) (A) (A) (A)
                 (A) (A) (A) (A) (A) (A) (A) (A) (A) (A) (A) (A)
                 (A) (A) (A) (A) (A) (A) (A) (A) (A) (A) (A) (A)
                 (A) (A) (A) (A) (A) (A) (A) (A) (A) (A) (A) (A)
                 (A) (A) (A) (A) (A) (A) (A) (A) (A) (A) (A) (A)
                 (A) (A) (A) (A) (A) (A) (A) (A) (A) (A) (A) (A)
                 (A) (A) (A) (A) (A) (A) (A) (A) (A) (A) (A) (A)
                 (A) (A) (A) (A) (A) (A) (A) (A) (A) (A) (A) (A)
                 (A) (A) (A) (A) (A) (A) (A) (A) (A) (A) (A) (A)
                 (A) (A) (A) (A) (A) (A) (A) (A) (A) (A) (A) (A)
                 (A) (A) (A) (A) (A) (A) (A) (A) (A) (A) (A) (A)
                 (A) (A) (A) (A) (A) (A) (A) (A) (A) (A) (A) (A)
                 (A) (A) (A) (A) (A) (A) (A) (A) (A) (A) (A) (A)
                 (A) (A) (A) (A) (A) (A) (A) (A) (A) (A) (A) (A)
                 (A) (A) (A) (A) (A) (A) (A) (A) (A) (A) (A) (A)
                 (A) (A) (A) (A) (A) (A) (A) (A) (A) (A) (A) (A)
                 (A) (A) (A) (A) (A) (A) (A) (A) (A) (A) (A) (A)
                 (A) (A) (A) (A) (A) (A) (A) (A) (A) (A) (A) (A)
                 (A) (A) (A) (A) (A) (A) (A) (A) (A) (A) (A) (A)
                 (A) (A) (A) (A) (A) (A) (A) (A) (A) (A) (A) (A)
                 (A) (A) (A) (A) (A) (A) (A) (A) (A) (A) (A) (A)
                 (A) (A) (A) (A) (A) (A) (A) (A) (A) (A) (A) (A)
                 (A) (A) (A) (A) (A) (A) (A) (A) (A) (A) (A) (A)
                 (A) (A) (A) (A) (A) (A) (A) (A) (A) (A) (A) (A)
                 (A) (A) (A) (A) (A) (A) (A) (A) (A) (A) (A) (A)
                 (A) (A) (A) (A) (A) (A) (A) (A) (A) (A) (A) (A)
                 (A) (A) (A) (A) (A) (A) (A) (A) (A) (A) (A) (A)
                 (A) (A) (A) (A) (A) (A) (A) (A) (A) (A) (A) (A)
                 (A) (A) (A) (A) (A) (A) (A) (A) (A) (A) (A) (A)
                 (A) (A) (A) (A) (A) (A) (A) (A) (A) (A) (A) (A)
                 (A) (A) (A) (A) (A) (A) (A) (A) (A) (A) (A) (A)
                 (A) (A) (A) (A) (A) (A) (A) (A) (A) (A) (A) (A)
                 (A) (A) (A) (A) (A) (A) (A) (A) (A) (A) (A) (A)
                 (A) (A) (A) (A) (A) (A) (A) (A) (A) (A) (A) (A)
                 (A) (A) (A) (A) (A) (A) (A) (A) (A) (A) (A) (A)
                 (A) (A) (A) (A) (A) (A) (A) (A) (A) (A) (A) (A)
                 (A) (A) (A) (A) (A) (A) (A) (A) (A) (A) (A) (A)
                 (A) (A) (A) (A) (A) (A) (A) (A) (A) (A) (A) (A)
                 (A) (A) (A) (A) (A) (A) (A) (A) (A) (A) (A) (A)
                 (A) (A) (A) (A) (A) (A) (A) (A) (A) (A) (A) (A)
                 (A) (A) (A) (A) (A) (A) (A) (A) (A) (A) (A) (A)
                 (A) (A) (A) (A) (A) (A) (A) (A) (A) (A) (A) (A)
                 (A) (A) (A) (A) (A) (A) (A) (A) (A) (A) (A) (A)
                 (A) (A) (A) (A) (A) (A) (A) (A) (A) (A) (A) (A)
                 (A) (A) (A) (A) (A) (A) (A) (A) (A) (A) (A) (A)
                 (A) (A) (A) (A) (A) (A) (A) (A) (A) (A) (A) (A)
                 (A) (A) (A) (A) (A) (A) (A) (A) (A) (A) (A) (A)
                 (A) (A) (A) (A) (A) (A) (A) (A) (A) (A) (A) (A)
                 (A) (A) (A) (A) (A) (A) (A) (A) (A) (A) (A) (A)
                 (A) (A) (A) (A) (A) (A) (A) (A) (A) (A) (A) (A)
                 (A) (A) (A) (A) (A) (A) (A) (A) (A) (A) (A) (A)
                 (A) (A) (A) (A) (A) (A) (A) (A) (A) (A) (A) (A)
                 (A) (A) (A) (A) (A) (A) (A) (A) (A) (A) (A) (A)
                 (A) (A) (A) (A) (A) (A) (A) (A) (A) (A) (A) (A)
                 (A) (A) (A) (A) (A) (A) (A) (A) (A) (A) (A) (A)
                 (A) (A) (A) (A) (A) (A) (A) (A) (A) (A) (A) (A)
                 (A) (A) (A) (A) (A) (A) (A) (A) (A) (A) (A) (A)
                 (A) (A) (A) (A) (A) (A) (A) (A) (A) (A) (A) (A)
                 (A) (A) (A) (A) (A) (A) (A) (A) (A) (A) (A) (A)
                 (A) (A) (A) (A) (A) (A) (A) (A) (A) (A) (A) (A)
                 (A) (A) (A) (A) (A) (A) (A) (A) (A) (A) (A) (A)
                 (A) (A) (A) (A) (A) (A) (A) (A) (A) (A) (A) (A)
                 (A) (A) (A) (A) (A) (A) (A) (A) (A) (A) (A) (A)
                 (A) (A) (A) (A) (A) (A) (A) (A) (A) (A) (A) (A)
                 (A) (A) (A) (A) (A) (A) (A) (A) (A) (A) (A) (A)
                 (A) (A) (A) (A) (A) (A) (A) (A) (A) (A) (A) (A)
                 (A) (A) (A) (A) (A) (A) (A) (A) (A) (A) (A) (A)
                 (A) (A) (A) (A) (A) (A) (A) (A) (A) (A) (A) (A)
                 (A) (A) (A) (A) (A) (A) (A) (A) (A) (A) (A) (A)
                 (A) (A) (A) (A) (A) (A) (A) (A) (A) (A) (A) (A)
                 (A) (A) (A) (A) (A) (A) (A) (A) (A) (A) (A) (A)
                 (A) (A) (A) (A) (A) (A) (A) (A) (A) (A) (A) (A)
                 (A) (A) (A) (A) (A) (A) (A) (A) (A) (A) (A) (A)
                 (A) (A) (A) (A) (A) (A) (A) (A) (A) (A) (A) (A)
                 (A) (A) (A) (A) (A) (A) (A) (A) (A) (A) (A) (A)
                 (A) (A) (A) (A) (A) (A) (A) (A) (A) (A) (A) (A)
                 (A) (A) (A) (A) (A) (A) (A) (A) (A) (A) (A) (A)
                 (A) (A) (A) (A) (A) (A) (A) (A) (A) (A) (A) (A)
                 (A) (A) (A) (A) (A) (A) (A) (A) (A) (A) (A) (A)
                 (A) (A) (A) (A) (A) (A) (A) (A) (A) (A) (A) (A)
                 (A) (A) (A) (A) (A) (A) (A) (A) (A) (A) (A) (A)
                 (A) (A) (A) (A) (A) (A) (A) (A) (A) (A) (A) (A)
                 (A) (A) (A) (A) (A) (A) (A) (A) (A) (A) (A) (A)
                 (A) (A) (A) (A) (A) (A) (A) (A) (A) (A) (A) (A)
                 (A) (A) (A) (A) (A) (A) (A) (A) (A) (A) (A) (A)
                 (A) (A) (A) (A) (A) (A) (A) (A) (A) (A) (A) (A)
                 (A) (A) (A) (A) (A) (A) (A) (A) (A) (A) (A) (A)
                 (A) (A) (A) (A) (A) (A) (A) (A) (A) (A) (A) (A)
                 (A) (A) (A) (A) (A) (A) (A) (A) (A) (A) (A) (A)
                 (A) (A) (A) (A) (A) (A) (A) (A) (A) (A) (A) (A)
                 (A) (A) (A) (A) (A) (A) (A) (A) (A) (A) (A) (A)
                 (A) (A) (A) (A) (A) (A) (A) (A) (A) (A) (A) (A)
                 (A) (A) (A) (A) (A) (A) (A) (A) (A) (A) (A) (A)
                 (A) (A) (A) (A) (A) (A) (A) (A) (A) (A) (A) (A)
                 (A) (A) (A) (A) (A) (A) (A) (A) (A) (A) (A) (A)
                 (A) (A) (A) (A) (A) (A) (A) (A) (A) (A) (A) (A)
                 (A) (A) (A) (A) (A) (A) (A) (A) (A) (A) (A) (A)
                 (A) (A) (A) (A) (A) (A) (A) (A) (A) (A) (A) (A)
                 (A) (A) (A) (A) (A) (A) (A) (A) (A) (A) (A) (A)
                 (A) (A) (A) (A) (A) (A) (A) (A) (A) (A) (A) (A)
                 (A) (A) (A) (A) (A) (A) (A) (A) (A) (A) (A) (A)
                 (A) (A) (A) (A) (A) (A) (A) (A) (A) (A) (A) (A)
                 (A) (A) (A) (A) (A) (A) (A) (A) (A) (A) (A) (A)
                 (A) (A) (A) (A) (A) (A) (A) (A) (A) (A) (A) (A)
                 (A) (A) (A) (A) (A) (A) (A) (A) (A) (A) (A) (A)
                 (A) (A) (A) (A) (A) (A) (A) (A) (A) (A) (A) (A)
                 (A) (A) (A) (A) (A) (A) (A) (A) (A) (A) (A) (A)
                 (A) (A) (A) (A) (A) (A) (A) (A) (A) (A) (A) (A)
                 (A) (A) (A) (A) (A) (A) (A) (A) (A) (A) (A) (A)
                 (A) (A) (A) (A) (A) (A) (A) (A) (A) (A) (A) (A)
                 (A) (A) (A) (A) (A) (A) (A) (A) (A) (A) (A) (A)
                 (A) (A) (A) (A) (A) (A) (A) (A) (A) (A) (A) (A)
                 (A) (A) (A) (A) (A) (A) (A) (A) (A) (A) (A) (A)
                 (A) (A) (A) (A) (A) (A) (A) (A) (A) (A) (A) (A)
                 (A) (A) (A) (A) (A) (A) (A) (A) (A) (A) (A) (A)
                 (A) (A) (A) (A) (A) (A) (A) (A) (A) (A) (A) (A)
                 (A) (A) (A) (A) (A) (A) (A) (A) (A) (A) (A) (A)
                 (A) (A) (A) (A) (A) (A) (A) (A) (A) (A) (A) (A)
                 (A) (A) (A) (A) (A) (A) (A) (A) (A) (A) (A) (A)
                 (A) (A) (A) (A) (A) (A) (A) (A) (A) (A) (A) (A)
                 (A) (A) (A) (A) (A) (A) (A) (A) (A) (A) (A) (A)
                 (A) (A) (A) (A) (A) (A) (A) (A) (A) (A) (A) (A)
                 (A) (A) (A) (A) (A) (A) (A) (A) (A) (A) (A) (A)
                 (A) (A) (A) (A) (A) (A) (A) (A) (A) (A) (A) (A)
                 (A) (A) (A) (A) (A) (A) (A) (A) (A) (A) (A) (A)
                 (A) (A) (A) (A) (A) (A) (A) (A) (A) (A) (A) (A)
                 (A) (A) (A) (A) (A) (A) (A) (A) (A) (A) (A) (A)
                 (A) (A) (A) (A) (A) (A) (A) (A) (A) (A) (A) (A)
                 (A) (A) (A) (A) (A) (A) (A) (A) (A) (A) (A) (A)
                 (A) (A) (A) (A) (A) (A) (A) (A) (A) (A) (A) (A)
                 (A) (A) (A) (A) (A) (A) (A) (A) (A) (A) (A) (A)
                 (A) (A)
 Beta  Orbitals:
       Occupied  (A) (A) (A) (A) (A) (A) (A) (A) (A) (A) (A) (A)
                 (A) (A) (A) (A) (A) (A) (A) (A) (A) (A) (A) (A)
                 (A) (A) (A) (A) (A) (A) (A) (A) (A) (A) (A) (A)
                 (A) (A) (A) (A) (A) (A) (A) (A) (A) (A) (A) (A)
                 (A) (A) (A) (A) (A) (A) (A) (A) (A) (A) (A) (A)
                 (A) (A) (A) (A) (A) (A) (A) (A) (A) (A) (A) (A)
                 (A) (A) (A) (A) (A) (A) (A) (A) (A) (A) (A) (A)
                 (A) (A) (A) (A) (A) (A) (A) (A) (A) (A) (A) (A)
                 (A) (A) (A) (A) (A) (A) (A) (A) (A) (A) (A) (A)
                 (A) (A) (A) (A) (A) (A) (A) (A) (A) (A) (A) (A)
                 (A) (A) (A) (A) (A) (A) (A) (A) (A) (A) (A) (A)
                 (A) (A) (A) (A) (A) (A) (A) (A) (A) (A) (A) (A)
                 (A) (A) (A) (A) (A) (A) (A) (A) (A) (A) (A) (A)
                 (A) (A) (A) (A) (A) (A) (A) (A) (A) (A) (A) (A)
                 (A) (A) (A) (A) (A) (A) (A) (A) (A) (A) (A) (A)
                 (A) (A) (A) (A) (A) (A) (A) (A) (A) (A) (A) (A)
                 (A) (A) (A) (A) (A) (A)
       Virtual   (A) (A) (A) (A) (A) (A) (A) (A) (A) (A) (A) (A)
                 (A) (A) (A) (A) (A) (A) (A) (A) (A) (A) (A) (A)
                 (A) (A) (A) (A) (A) (A) (A) (A) (A) (A) (A) (A)
                 (A) (A) (A) (A) (A) (A) (A) (A) (A) (A) (A) (A)
                 (A) (A) (A) (A) (A) (A) (A) (A) (A) (A) (A) (A)
                 (A) (A) (A) (A) (A) (A) (A) (A) (A) (A) (A) (A)
                 (A) (A) (A) (A) (A) (A) (A) (A) (A) (A) (A) (A)
                 (A) (A) (A) (A) (A) (A) (A) (A) (A) (A) (A) (A)
                 (A) (A) (A) (A) (A) (A) (A) (A) (A) (A) (A) (A)
                 (A) (A) (A) (A) (A) (A) (A) (A) (A) (A) (A) (A)
                 (A) (A) (A) (A) (A) (A) (A) (A) (A) (A) (A) (A)
                 (A) (A) (A) (A) (A) (A) (A) (A) (A) (A) (A) (A)
                 (A) (A) (A) (A) (A) (A) (A) (A) (A) (A) (A) (A)
                 (A) (A) (A) (A) (A) (A) (A) (A) (A) (A) (A) (A)
                 (A) (A) (A) (A) (A) (A) (A) (A) (A) (A) (A) (A)
                 (A) (A) (A) (A) (A) (A) (A) (A) (A) (A) (A) (A)
                 (A) (A) (A) (A) (A) (A) (A) (A) (A) (A) (A) (A)
                 (A) (A) (A) (A) (A) (A) (A) (A) (A) (A) (A) (A)
                 (A) (A) (A) (A) (A) (A) (A) (A) (A) (A) (A) (A)
                 (A) (A) (A) (A) (A) (A) (A) (A) (A) (A) (A) (A)
                 (A) (A) (A) (A) (A) (A) (A) (A) (A) (A) (A) (A)
                 (A) (A) (A) (A) (A) (A) (A) (A) (A) (A) (A) (A)
                 (A) (A) (A) (A) (A) (A) (A) (A) (A) (A) (A) (A)
                 (A) (A) (A) (A) (A) (A) (A) (A) (A) (A) (A) (A)
                 (A) (A) (A) (A) (A) (A) (A) (A) (A) (A) (A) (A)
                 (A) (A) (A) (A) (A) (A) (A) (A) (A) (A) (A) (A)
                 (A) (A) (A) (A) (A) (A) (A) (A) (A) (A) (A) (A)
                 (A) (A) (A) (A) (A) (A) (A) (A) (A) (A) (A) (A)
                 (A) (A) (A) (A) (A) (A) (A) (A) (A) (A) (A) (A)
                 (A) (A) (A) (A) (A) (A) (A) (A) (A) (A) (A) (A)
                 (A) (A) (A) (A) (A) (A) (A) (A) (A) (A) (A) (A)
                 (A) (A) (A) (A) (A) (A) (A) (A) (A) (A) (A) (A)
                 (A) (A) (A) (A) (A) (A) (A) (A) (A) (A) (A) (A)
                 (A) (A) (A) (A) (A) (A) (A) (A) (A) (A) (A) (A)
                 (A) (A) (A) (A) (A) (A) (A) (A) (A) (A) (A) (A)
                 (A) (A) (A) (A) (A) (A) (A) (A) (A) (A) (A) (A)
                 (A) (A) (A) (A) (A) (A) (A) (A) (A) (A) (A) (A)
                 (A) (A) (A) (A) (A) (A) (A) (A) (A) (A) (A) (A)
                 (A) (A) (A) (A) (A) (A) (A) (A) (A) (A) (A) (A)
                 (A) (A) (A) (A) (A) (A) (A) (A) (A) (A) (A) (A)
                 (A) (A) (A) (A) (A) (A) (A) (A) (A) (A) (A) (A)
                 (A) (A) (A) (A) (A) (A) (A) (A) (A) (A) (A) (A)
                 (A) (A) (A) (A) (A) (A) (A) (A) (A) (A) (A) (A)
                 (A) (A) (A) (A) (A) (A) (A) (A) (A) (A) (A) (A)
                 (A) (A) (A) (A) (A) (A) (A) (A) (A) (A) (A) (A)
                 (A) (A) (A) (A) (A) (A) (A) (A) (A) (A) (A) (A)
                 (A) (A) (A) (A) (A) (A) (A) (A) (A) (A) (A) (A)
                 (A) (A) (A) (A) (A) (A) (A) (A) (A) (A) (A) (A)
                 (A) (A) (A) (A) (A) (A) (A) (A) (A) (A) (A) (A)
                 (A) (A) (A) (A) (A) (A) (A) (A) (A) (A) (A) (A)
                 (A) (A) (A) (A) (A) (A) (A) (A) (A) (A) (A) (A)
                 (A) (A) (A) (A) (A) (A) (A) (A) (A) (A) (A) (A)
                 (A) (A) (A) (A) (A) (A) (A) (A) (A) (A) (A) (A)
                 (A) (A) (A) (A) (A) (A) (A) (A) (A) (A) (A) (A)
                 (A) (A) (A) (A) (A) (A) (A) (A) (A) (A) (A) (A)
                 (A) (A) (A) (A) (A) (A) (A) (A) (A) (A) (A) (A)
                 (A) (A) (A) (A) (A) (A) (A) (A) (A) (A) (A) (A)
                 (A) (A) (A) (A) (A) (A) (A) (A) (A) (A) (A) (A)
                 (A) (A) (A) (A) (A) (A) (A) (A) (A) (A) (A) (A)
                 (A) (A) (A) (A) (A) (A) (A) (A) (A) (A) (A) (A)
                 (A) (A) (A) (A) (A) (A) (A) (A) (A) (A) (A) (A)
                 (A) (A) (A) (A) (A) (A) (A) (A) (A) (A) (A) (A)
                 (A) (A) (A) (A) (A) (A) (A) (A) (A) (A) (A) (A)
                 (A) (A) (A) (A) (A) (A) (A) (A) (A) (A) (A) (A)
                 (A) (A) (A) (A) (A) (A) (A) (A) (A) (A) (A) (A)
                 (A) (A) (A) (A) (A) (A) (A) (A) (A) (A) (A) (A)
                 (A) (A) (A) (A) (A) (A) (A) (A) (A) (A) (A) (A)
                 (A) (A) (A) (A) (A) (A) (A) (A) (A) (A) (A) (A)
                 (A) (A) (A) (A) (A) (A) (A) (A) (A) (A) (A) (A)
                 (A) (A) (A) (A) (A) (A) (A) (A) (A) (A) (A) (A)
                 (A) (A) (A) (A) (A) (A) (A) (A) (A) (A) (A) (A)
                 (A) (A) (A) (A) (A) (A) (A) (A) (A) (A) (A) (A)
                 (A) (A) (A) (A) (A) (A) (A) (A) (A) (A) (A) (A)
                 (A) (A) (A) (A) (A) (A) (A) (A) (A) (A) (A) (A)
                 (A) (A) (A) (A) (A) (A) (A) (A) (A) (A) (A) (A)
                 (A) (A) (A) (A) (A) (A) (A) (A) (A) (A) (A) (A)
                 (A) (A) (A) (A) (A) (A) (A) (A) (A) (A) (A) (A)
                 (A) (A) (A) (A) (A) (A) (A) (A) (A) (A) (A) (A)
                 (A) (A) (A) (A) (A) (A) (A) (A) (A) (A) (A) (A)
                 (A) (A) (A) (A) (A) (A) (A) (A) (A) (A) (A) (A)
                 (A) (A) (A) (A) (A) (A) (A) (A) (A) (A) (A) (A)
                 (A) (A) (A) (A) (A) (A) (A) (A) (A) (A) (A) (A)
                 (A) (A) (A) (A) (A) (A) (A) (A) (A) (A) (A) (A)
                 (A) (A) (A) (A) (A) (A) (A) (A) (A) (A) (A) (A)
                 (A) (A) (A) (A) (A) (A) (A) (A) (A) (A) (A) (A)
                 (A) (A) (A) (A) (A) (A) (A) (A) (A) (A) (A) (A)
                 (A) (A) (A) (A) (A) (A) (A) (A) (A) (A) (A) (A)
                 (A) (A) (A) (A) (A) (A) (A) (A) (A) (A) (A) (A)
                 (A) (A) (A) (A) (A) (A) (A) (A) (A) (A) (A) (A)
                 (A) (A) (A) (A) (A) (A) (A) (A) (A) (A) (A) (A)
                 (A) (A) (A) (A) (A) (A) (A) (A) (A) (A) (A) (A)
                 (A) (A) (A) (A) (A) (A) (A) (A) (A) (A) (A) (A)
                 (A) (A) (A) (A) (A) (A) (A) (A) (A) (A) (A) (A)
                 (A) (A) (A) (A) (A) (A) (A) (A) (A) (A) (A) (A)
                 (A) (A) (A) (A) (A) (A) (A) (A) (A) (A) (A) (A)
                 (A) (A) (A) (A) (A) (A) (A) (A) (A) (A) (A) (A)
                 (A) (A) (A) (A) (A) (A) (A) (A) (A) (A) (A) (A)
                 (A) (A) (A) (A) (A) (A) (A) (A) (A) (A) (A) (A)
                 (A) (A) (A) (A) (A) (A) (A) (A) (A) (A) (A) (A)
                 (A) (A) (A) (A) (A) (A) (A) (A) (A) (A) (A) (A)
                 (A) (A) (A) (A) (A) (A) (A) (A) (A) (A) (A) (A)
                 (A) (A) (A) (A) (A) (A) (A) (A) (A) (A) (A) (A)
                 (A) (A) (A) (A) (A) (A) (A) (A) (A) (A) (A) (A)
                 (A) (A) (A) (A) (A) (A) (A) (A) (A) (A) (A) (A)
                 (A) (A) (A) (A) (A) (A) (A) (A) (A) (A) (A) (A)
                 (A) (A) (A) (A) (A) (A) (A) (A) (A) (A) (A) (A)
                 (A) (A) (A) (A) (A) (A) (A) (A) (A) (A) (A) (A)
                 (A) (A) (A) (A) (A) (A) (A) (A) (A) (A) (A) (A)
                 (A) (A) (A) (A) (A) (A) (A) (A) (A) (A) (A) (A)
                 (A) (A) (A) (A) (A) (A) (A) (A) (A) (A) (A) (A)
                 (A) (A) (A) (A) (A) (A) (A) (A) (A) (A) (A) (A)
                 (A) (A) (A) (A) (A) (A) (A) (A) (A) (A) (A) (A)
                 (A) (A) (A) (A) (A) (A) (A) (A) (A) (A) (A) (A)
                 (A) (A) (A) (A) (A) (A) (A) (A) (A) (A) (A) (A)
                 (A) (A) (A) (A) (A) (A) (A) (A) (A) (A) (A) (A)
                 (A) (A) (A) (A) (A) (A) (A) (A) (A) (A) (A) (A)
                 (A) (A) (A) (A) (A) (A) (A) (A) (A) (A) (A) (A)
                 (A) (A) (A) (A) (A) (A) (A) (A) (A) (A) (A) (A)
                 (A) (A) (A) (A) (A) (A) (A) (A) (A) (A) (A) (A)
                 (A) (A) (A) (A) (A) (A) (A) (A) (A) (A) (A) (A)
                 (A) (A) (A) (A) (A) (A) (A) (A) (A) (A) (A) (A)
                 (A) (A) (A) (A) (A) (A) (A) (A) (A) (A) (A) (A)
                 (A) (A) (A) (A) (A) (A) (A) (A) (A) (A) (A) (A)
                 (A) (A) (A) (A) (A) (A) (A) (A) (A) (A) (A) (A)
                 (A) (A) (A) (A) (A) (A) (A) (A) (A) (A) (A) (A)
                 (A) (A) (A) (A) (A) (A) (A) (A) (A) (A) (A) (A)
                 (A) (A) (A) (A) (A) (A) (A) (A) (A) (A) (A) (A)
                 (A) (A) (A) (A) (A) (A) (A) (A) (A) (A) (A) (A)
                 (A) (A) (A) (A) (A) (A) (A) (A) (A) (A) (A) (A)
                 (A) (A) (A) (A) (A) (A) (A) (A) (A) (A) (A) (A)
                 (A) (A) (A) (A) (A) (A) (A) (A) (A) (A) (A) (A)
                 (A) (A) (A) (A) (A) (A) (A) (A) (A) (A) (A) (A)
                 (A) (A) (A) (A) (A) (A) (A) (A) (A) (A) (A) (A)
                 (A) (A) (A) (A) (A) (A) (A) (A) (A) (A) (A) (A)
                 (A) (A) (A) (A) (A) (A) (A) (A) (A) (A) (A) (A)
                 (A) (A) (A) (A) (A) (A) (A) (A) (A) (A) (A) (A)
                 (A) (A) (A) (A) (A) (A) (A) (A) (A) (A) (A) (A)
                 (A) (A) (A)
 The electronic state is 2-A.
 Alpha  occ. eigenvalues -- -101.10010 -19.01767 -19.01500 -19.00486 -14.18497
 Alpha  occ. eigenvalues --  -14.18440 -14.17622 -14.17543 -10.14874 -10.14755
 Alpha  occ. eigenvalues --  -10.12876 -10.11886 -10.11632 -10.11622 -10.10838
 Alpha  occ. eigenvalues --  -10.10005 -10.09860 -10.09730 -10.09551 -10.08359
 Alpha  occ. eigenvalues --  -10.07569 -10.07332 -10.07196 -10.07051 -10.07050
 Alpha  occ. eigenvalues --  -10.06859 -10.06621 -10.06618 -10.06521 -10.06450
 Alpha  occ. eigenvalues --  -10.05996 -10.05911 -10.05787 -10.05770 -10.05638
 Alpha  occ. eigenvalues --  -10.05444 -10.05307 -10.05190 -10.05157 -10.05056
 Alpha  occ. eigenvalues --  -10.05026 -10.04626 -10.04569 -10.04521 -10.04436
 Alpha  occ. eigenvalues --  -10.04210 -10.03962 -10.03821 -10.03609  -9.32969
 Alpha  occ. eigenvalues --   -7.03328  -7.03195  -7.03030  -4.03022  -4.00337
 Alpha  occ. eigenvalues --   -2.63619  -2.60875  -2.60819  -2.59959  -2.58545
 Alpha  occ. eigenvalues --   -2.57058  -1.06750  -1.06499  -1.04117  -0.93731
 Alpha  occ. eigenvalues --   -0.89296  -0.87739  -0.86496  -0.82600  -0.81416
 Alpha  occ. eigenvalues --   -0.80008  -0.79019  -0.78794  -0.78385  -0.75221
 Alpha  occ. eigenvalues --   -0.74453  -0.74175  -0.72190  -0.72168  -0.71303
 Alpha  occ. eigenvalues --   -0.70725  -0.70077  -0.69966  -0.69638  -0.66004
 Alpha  occ. eigenvalues --   -0.65587  -0.65052  -0.64851  -0.64656  -0.64413
 Alpha  occ. eigenvalues --   -0.63832  -0.62595  -0.61358  -0.60627  -0.60415
 Alpha  occ. eigenvalues --   -0.57984  -0.57499  -0.56273  -0.56021  -0.55390
 Alpha  occ. eigenvalues --   -0.54871  -0.54675  -0.51751  -0.50892  -0.50348
 Alpha  occ. eigenvalues --   -0.49708  -0.49591  -0.49091  -0.48699  -0.48051
 Alpha  occ. eigenvalues --   -0.46894  -0.46647  -0.46132  -0.45535  -0.45118
 Alpha  occ. eigenvalues --   -0.45016  -0.44473  -0.42997  -0.42852  -0.42539
 Alpha  occ. eigenvalues --   -0.42366  -0.42223  -0.41566  -0.41401  -0.40753
 Alpha  occ. eigenvalues --   -0.40507  -0.40356  -0.40200  -0.40104  -0.39937
 Alpha  occ. eigenvalues --   -0.39659  -0.39622  -0.39416  -0.38716  -0.38631
 Alpha  occ. eigenvalues --   -0.38106  -0.38023  -0.37612  -0.37330  -0.37125
 Alpha  occ. eigenvalues --   -0.36536  -0.36340  -0.35985  -0.35787  -0.35701
 Alpha  occ. eigenvalues --   -0.35229  -0.34946  -0.34724  -0.34618  -0.34392
 Alpha  occ. eigenvalues --   -0.34240  -0.33789  -0.33456  -0.33360  -0.33229
 Alpha  occ. eigenvalues --   -0.33067  -0.32973  -0.32687  -0.32528  -0.32361
 Alpha  occ. eigenvalues --   -0.31872  -0.31519  -0.30928  -0.30830  -0.30457
 Alpha  occ. eigenvalues --   -0.30394  -0.30322  -0.30064  -0.29934  -0.29690
 Alpha  occ. eigenvalues --   -0.29570  -0.29517  -0.29274  -0.29082  -0.29037
 Alpha  occ. eigenvalues --   -0.28832  -0.28625  -0.27535  -0.26383  -0.25226
 Alpha  occ. eigenvalues --   -0.25060  -0.24778  -0.24540  -0.23521  -0.23253
 Alpha  occ. eigenvalues --   -0.22867  -0.22654  -0.22620  -0.22111  -0.21574
 Alpha  occ. eigenvalues --   -0.20918  -0.20639  -0.20393  -0.20219  -0.19355
 Alpha  occ. eigenvalues --   -0.18931  -0.18099  -0.17200  -0.16775
 Alpha virt. eigenvalues --   -0.10911  -0.08259  -0.06134  -0.03938  -0.03558
 Alpha virt. eigenvalues --   -0.03420  -0.02998  -0.02497  -0.02318  -0.00181
 Alpha virt. eigenvalues --    0.00595   0.01610   0.02226   0.02545   0.02729
 Alpha virt. eigenvalues --    0.03149   0.03565   0.03818   0.04671   0.04987
 Alpha virt. eigenvalues --    0.05499   0.05768   0.06123   0.06274   0.06472
 Alpha virt. eigenvalues --    0.07055   0.07236   0.07326   0.07713   0.07909
 Alpha virt. eigenvalues --    0.08067   0.08211   0.08594   0.08746   0.08933
 Alpha virt. eigenvalues --    0.09225   0.09334   0.09413   0.09503   0.09601
 Alpha virt. eigenvalues --    0.09993   0.10199   0.10324   0.10560   0.10748
 Alpha virt. eigenvalues --    0.11040   0.11102   0.11230   0.11500   0.11614
 Alpha virt. eigenvalues --    0.11748   0.11849   0.12130   0.12531   0.12598
 Alpha virt. eigenvalues --    0.12658   0.13134   0.13262   0.13445   0.13627
 Alpha virt. eigenvalues --    0.13764   0.14012   0.14232   0.14257   0.14454
 Alpha virt. eigenvalues --    0.14854   0.15071   0.15180   0.15385   0.15606
 Alpha virt. eigenvalues --    0.15703   0.15833   0.16020   0.16298   0.16452
 Alpha virt. eigenvalues --    0.16852   0.17035   0.17211   0.17312   0.17563
 Alpha virt. eigenvalues --    0.17735   0.17822   0.18107   0.18353   0.18669
 Alpha virt. eigenvalues --    0.18994   0.19236   0.19452   0.19649   0.19839
 Alpha virt. eigenvalues --    0.19965   0.20385   0.20519   0.20854   0.21180
 Alpha virt. eigenvalues --    0.21358   0.21452   0.21670   0.21835   0.22072
 Alpha virt. eigenvalues --    0.22198   0.22296   0.22526   0.22820   0.23078
 Alpha virt. eigenvalues --    0.23258   0.23503   0.23560   0.23695   0.23949
 Alpha virt. eigenvalues --    0.24065   0.24344   0.24454   0.24586   0.24801
 Alpha virt. eigenvalues --    0.24845   0.25301   0.25450   0.25748   0.26003
 Alpha virt. eigenvalues --    0.26191   0.26241   0.26502   0.26770   0.26782
 Alpha virt. eigenvalues --    0.26938   0.27028   0.27585   0.27611   0.28127
 Alpha virt. eigenvalues --    0.28310   0.28412   0.28645   0.28707   0.29058
 Alpha virt. eigenvalues --    0.29247   0.29300   0.29580   0.29672   0.29775
 Alpha virt. eigenvalues --    0.29946   0.30157   0.30484   0.30634   0.30785
 Alpha virt. eigenvalues --    0.31178   0.31364   0.31593   0.31826   0.32046
 Alpha virt. eigenvalues --    0.32215   0.32402   0.32741   0.33154   0.33256
 Alpha virt. eigenvalues --    0.33318   0.33412   0.33793   0.34055   0.34151
 Alpha virt. eigenvalues --    0.34292   0.34359   0.34711   0.34824   0.34990
 Alpha virt. eigenvalues --    0.35250   0.35344   0.35714   0.35842   0.35855
 Alpha virt. eigenvalues --    0.36070   0.36104   0.36248   0.36526   0.36607
 Alpha virt. eigenvalues --    0.36846   0.36866   0.36990   0.37225   0.37301
 Alpha virt. eigenvalues --    0.37458   0.37573   0.38096   0.38207   0.38294
 Alpha virt. eigenvalues --    0.38377   0.38399   0.38815   0.38941   0.39123
 Alpha virt. eigenvalues --    0.39418   0.39503   0.39662   0.39874   0.39977
 Alpha virt. eigenvalues --    0.40179   0.40255   0.40311   0.40663   0.40772
 Alpha virt. eigenvalues --    0.40837   0.41003   0.41197   0.41489   0.41575
 Alpha virt. eigenvalues --    0.41817   0.42094   0.42229   0.42476   0.42696
 Alpha virt. eigenvalues --    0.42763   0.42976   0.43114   0.43228   0.43463
 Alpha virt. eigenvalues --    0.43590   0.43768   0.43911   0.44025   0.44139
 Alpha virt. eigenvalues --    0.44349   0.44536   0.44612   0.44697   0.44860
 Alpha virt. eigenvalues --    0.44977   0.45013   0.45094   0.45335   0.45522
 Alpha virt. eigenvalues --    0.45558   0.45869   0.45959   0.46148   0.46264
 Alpha virt. eigenvalues --    0.46458   0.46632   0.46853   0.46949   0.47362
 Alpha virt. eigenvalues --    0.47565   0.47815   0.47947   0.48105   0.48191
 Alpha virt. eigenvalues --    0.48344   0.48730   0.48865   0.49092   0.49307
 Alpha virt. eigenvalues --    0.49398   0.49619   0.49885   0.50132   0.50217
 Alpha virt. eigenvalues --    0.50330   0.50774   0.50874   0.50940   0.51532
 Alpha virt. eigenvalues --    0.51677   0.52014   0.52310   0.52548   0.52878
 Alpha virt. eigenvalues --    0.53064   0.53130   0.53440   0.53600   0.53803
 Alpha virt. eigenvalues --    0.54228   0.54540   0.54950   0.55044   0.55380
 Alpha virt. eigenvalues --    0.55781   0.56204   0.56263   0.56572   0.56905
 Alpha virt. eigenvalues --    0.57113   0.57297   0.57676   0.58296   0.58358
 Alpha virt. eigenvalues --    0.58713   0.58875   0.59152   0.59667   0.59849
 Alpha virt. eigenvalues --    0.60560   0.60758   0.61229   0.61537   0.61844
 Alpha virt. eigenvalues --    0.62137   0.62207   0.62444   0.62654   0.63256
 Alpha virt. eigenvalues --    0.63473   0.63645   0.63721   0.63889   0.64073
 Alpha virt. eigenvalues --    0.64196   0.64723   0.64820   0.65316   0.65536
 Alpha virt. eigenvalues --    0.65918   0.66041   0.66471   0.66602   0.66840
 Alpha virt. eigenvalues --    0.66985   0.67161   0.67474   0.67879   0.67952
 Alpha virt. eigenvalues --    0.68141   0.68452   0.68705   0.68918   0.69098
 Alpha virt. eigenvalues --    0.69345   0.69632   0.70284   0.70510   0.70689
 Alpha virt. eigenvalues --    0.70895   0.71257   0.71367   0.71444   0.71751
 Alpha virt. eigenvalues --    0.71973   0.72439   0.72639   0.72829   0.73181
 Alpha virt. eigenvalues --    0.73253   0.73370   0.73607   0.73851   0.74398
 Alpha virt. eigenvalues --    0.74668   0.74834   0.75168   0.75464   0.75710
 Alpha virt. eigenvalues --    0.75906   0.76328   0.76624   0.76699   0.76776
 Alpha virt. eigenvalues --    0.77181   0.77518   0.77788   0.78100   0.78392
 Alpha virt. eigenvalues --    0.78519   0.78654   0.79185   0.79263   0.79821
 Alpha virt. eigenvalues --    0.80096   0.80187   0.80660   0.80970   0.81097
 Alpha virt. eigenvalues --    0.81248   0.81749   0.81882   0.82018   0.82401
 Alpha virt. eigenvalues --    0.82569   0.83141   0.83236   0.83626   0.83703
 Alpha virt. eigenvalues --    0.83908   0.84363   0.84537   0.85059   0.85456
 Alpha virt. eigenvalues --    0.85797   0.86176   0.86638   0.86666   0.86963
 Alpha virt. eigenvalues --    0.87088   0.87558   0.87909   0.88077   0.88285
 Alpha virt. eigenvalues --    0.88801   0.89070   0.89323   0.90044   0.90171
 Alpha virt. eigenvalues --    0.90350   0.90490   0.90855   0.91040   0.91505
 Alpha virt. eigenvalues --    0.91541   0.92160   0.92318   0.92462   0.92840
 Alpha virt. eigenvalues --    0.93323   0.93662   0.94130   0.94364   0.94895
 Alpha virt. eigenvalues --    0.95023   0.95419   0.96104   0.96394   0.96857
 Alpha virt. eigenvalues --    0.97263   0.97444   0.97682   0.98209   0.98489
 Alpha virt. eigenvalues --    0.98863   0.99469   0.99725   1.00093   1.00491
 Alpha virt. eigenvalues --    1.00669   1.01355   1.01560   1.02012   1.02107
 Alpha virt. eigenvalues --    1.02842   1.03310   1.03608   1.03794   1.04276
 Alpha virt. eigenvalues --    1.04480   1.04597   1.05024   1.05251   1.05401
 Alpha virt. eigenvalues --    1.05626   1.05807   1.06388   1.06489   1.06658
 Alpha virt. eigenvalues --    1.06929   1.07478   1.07794   1.07908   1.08010
 Alpha virt. eigenvalues --    1.08516   1.09142   1.09271   1.09938   1.10280
 Alpha virt. eigenvalues --    1.10602   1.10991   1.11187   1.11721   1.11920
 Alpha virt. eigenvalues --    1.12253   1.12539   1.12793   1.13078   1.13281
 Alpha virt. eigenvalues --    1.13478   1.14153   1.14327   1.14807   1.15005
 Alpha virt. eigenvalues --    1.15131   1.15685   1.15943   1.16317   1.16487
 Alpha virt. eigenvalues --    1.16968   1.17397   1.17689   1.18087   1.18430
 Alpha virt. eigenvalues --    1.18647   1.18997   1.19256   1.19618   1.19846
 Alpha virt. eigenvalues --    1.20267   1.20341   1.20957   1.21300   1.21532
 Alpha virt. eigenvalues --    1.21908   1.22115   1.22813   1.22990   1.23190
 Alpha virt. eigenvalues --    1.23546   1.24063   1.24298   1.24497   1.24554
 Alpha virt. eigenvalues --    1.25164   1.25367   1.25696   1.25726   1.26027
 Alpha virt. eigenvalues --    1.26713   1.27006   1.27297   1.27685   1.27967
 Alpha virt. eigenvalues --    1.28207   1.28363   1.28736   1.29104   1.29334
 Alpha virt. eigenvalues --    1.29555   1.29830   1.30376   1.30789   1.30860
 Alpha virt. eigenvalues --    1.31882   1.32078   1.32446   1.32837   1.33078
 Alpha virt. eigenvalues --    1.33287   1.34140   1.34289   1.34802   1.34892
 Alpha virt. eigenvalues --    1.35169   1.35526   1.36207   1.36379   1.36573
 Alpha virt. eigenvalues --    1.37176   1.37661   1.37996   1.38067   1.38321
 Alpha virt. eigenvalues --    1.38971   1.39369   1.39638   1.40024   1.40757
 Alpha virt. eigenvalues --    1.41269   1.41299   1.41643   1.42309   1.42502
 Alpha virt. eigenvalues --    1.42828   1.43651   1.44179   1.44219   1.44708
 Alpha virt. eigenvalues --    1.45160   1.45703   1.45916   1.46357   1.46563
 Alpha virt. eigenvalues --    1.46826   1.47182   1.47590   1.47886   1.48515
 Alpha virt. eigenvalues --    1.48605   1.49018   1.49168   1.49467   1.49709
 Alpha virt. eigenvalues --    1.50087   1.50212   1.50799   1.51140   1.51233
 Alpha virt. eigenvalues --    1.51706   1.51969   1.52387   1.52919   1.53055
 Alpha virt. eigenvalues --    1.53694   1.53868   1.53892   1.54323   1.54616
 Alpha virt. eigenvalues --    1.55059   1.55389   1.55608   1.56224   1.56338
 Alpha virt. eigenvalues --    1.56662   1.56785   1.56930   1.57209   1.57533
 Alpha virt. eigenvalues --    1.57856   1.57901   1.58183   1.58527   1.58746
 Alpha virt. eigenvalues --    1.59058   1.59302   1.59532   1.59731   1.59837
 Alpha virt. eigenvalues --    1.60062   1.60735   1.60786   1.61094   1.61298
 Alpha virt. eigenvalues --    1.61390   1.61808   1.62077   1.62242   1.62443
 Alpha virt. eigenvalues --    1.62706   1.62888   1.63339   1.63470   1.64004
 Alpha virt. eigenvalues --    1.64047   1.64583   1.64731   1.65038   1.65213
 Alpha virt. eigenvalues --    1.65880   1.66146   1.66420   1.66884   1.66988
 Alpha virt. eigenvalues --    1.67620   1.67789   1.67924   1.68514   1.68888
 Alpha virt. eigenvalues --    1.69077   1.69417   1.69741   1.69942   1.70054
 Alpha virt. eigenvalues --    1.70478   1.71012   1.71183   1.71525   1.72070
 Alpha virt. eigenvalues --    1.72516   1.72780   1.72925   1.73643   1.73974
 Alpha virt. eigenvalues --    1.74130   1.74499   1.74829   1.74994   1.75645
 Alpha virt. eigenvalues --    1.76158   1.76345   1.76954   1.77485   1.77870
 Alpha virt. eigenvalues --    1.78085   1.78481   1.78744   1.79581   1.79870
 Alpha virt. eigenvalues --    1.79885   1.80148   1.80279   1.81038   1.81978
 Alpha virt. eigenvalues --    1.82446   1.82720   1.82929   1.83062   1.83975
 Alpha virt. eigenvalues --    1.84360   1.84579   1.84993   1.85534   1.86183
 Alpha virt. eigenvalues --    1.86681   1.86947   1.87047   1.87670   1.88121
 Alpha virt. eigenvalues --    1.88197   1.88540   1.88898   1.89064   1.89659
 Alpha virt. eigenvalues --    1.89906   1.90452   1.90740   1.91082   1.91388
 Alpha virt. eigenvalues --    1.91638   1.91889   1.92081   1.92335   1.92808
 Alpha virt. eigenvalues --    1.93094   1.93161   1.93700   1.93949   1.94617
 Alpha virt. eigenvalues --    1.94883   1.95113   1.95554   1.95933   1.96553
 Alpha virt. eigenvalues --    1.97163   1.97278   1.97579   1.97895   1.98499
 Alpha virt. eigenvalues --    1.98719   1.99147   1.99365   1.99588   2.00283
 Alpha virt. eigenvalues --    2.00550   2.00754   2.01053   2.01487   2.01721
 Alpha virt. eigenvalues --    2.02642   2.02892   2.03289   2.03383   2.03648
 Alpha virt. eigenvalues --    2.04005   2.04427   2.04553   2.04989   2.05756
 Alpha virt. eigenvalues --    2.06285   2.06791   2.07135   2.07416   2.07968
 Alpha virt. eigenvalues --    2.08162   2.08587   2.08879   2.09056   2.09215
 Alpha virt. eigenvalues --    2.09850   2.09990   2.10622   2.10651   2.10833
 Alpha virt. eigenvalues --    2.11463   2.11670   2.12080   2.12524   2.12868
 Alpha virt. eigenvalues --    2.13140   2.13423   2.13714   2.13861   2.14152
 Alpha virt. eigenvalues --    2.14455   2.14708   2.14934   2.15595   2.16024
 Alpha virt. eigenvalues --    2.16484   2.16800   2.16989   2.17617   2.17898
 Alpha virt. eigenvalues --    2.18264   2.18682   2.19004   2.19258   2.19814
 Alpha virt. eigenvalues --    2.20132   2.20689   2.21219   2.21472   2.21798
 Alpha virt. eigenvalues --    2.21976   2.22311   2.22396   2.23303   2.23377
 Alpha virt. eigenvalues --    2.24016   2.24162   2.24686   2.24799   2.25186
 Alpha virt. eigenvalues --    2.25419   2.25899   2.25967   2.26119   2.26611
 Alpha virt. eigenvalues --    2.27051   2.27233   2.27389   2.27648   2.28120
 Alpha virt. eigenvalues --    2.28499   2.28618   2.29509   2.29708   2.29964
 Alpha virt. eigenvalues --    2.30424   2.30576   2.31323   2.31928   2.32279
 Alpha virt. eigenvalues --    2.32499   2.32769   2.33017   2.33536   2.33865
 Alpha virt. eigenvalues --    2.34186   2.34530   2.34625   2.34917   2.35151
 Alpha virt. eigenvalues --    2.35701   2.36156   2.36341   2.36748   2.37348
 Alpha virt. eigenvalues --    2.37618   2.37720   2.38231   2.38368   2.38809
 Alpha virt. eigenvalues --    2.38990   2.39462   2.40018   2.40240   2.40808
 Alpha virt. eigenvalues --    2.41044   2.41447   2.41525   2.41972   2.42060
 Alpha virt. eigenvalues --    2.43106   2.43423   2.43944   2.44074   2.44522
 Alpha virt. eigenvalues --    2.44998   2.45048   2.45482   2.45701   2.46312
 Alpha virt. eigenvalues --    2.46509   2.46966   2.47615   2.48077   2.48813
 Alpha virt. eigenvalues --    2.49229   2.49605   2.49983   2.50376   2.51115
 Alpha virt. eigenvalues --    2.51274   2.51605   2.52004   2.52375   2.52805
 Alpha virt. eigenvalues --    2.53039   2.53401   2.53810   2.54297   2.54616
 Alpha virt. eigenvalues --    2.55002   2.55096   2.55697   2.56122   2.56508
 Alpha virt. eigenvalues --    2.56736   2.56949   2.57420   2.57658   2.57868
 Alpha virt. eigenvalues --    2.58294   2.58607   2.58755   2.59123   2.59461
 Alpha virt. eigenvalues --    2.59854   2.59922   2.60177   2.60544   2.60779
 Alpha virt. eigenvalues --    2.60933   2.61082   2.61643   2.61963   2.62110
 Alpha virt. eigenvalues --    2.62294   2.62456   2.62663   2.63259   2.63423
 Alpha virt. eigenvalues --    2.63511   2.63970   2.64330   2.64582   2.64872
 Alpha virt. eigenvalues --    2.65206   2.65375   2.65960   2.66051   2.66185
 Alpha virt. eigenvalues --    2.66276   2.66974   2.67339   2.67670   2.68103
 Alpha virt. eigenvalues --    2.68545   2.68839   2.68991   2.69130   2.69530
 Alpha virt. eigenvalues --    2.70034   2.70336   2.70481   2.70816   2.71018
 Alpha virt. eigenvalues --    2.71178   2.71358   2.71657   2.72056   2.72301
 Alpha virt. eigenvalues --    2.72607   2.72720   2.73129   2.73273   2.73784
 Alpha virt. eigenvalues --    2.74372   2.74675   2.74788   2.75375   2.75646
 Alpha virt. eigenvalues --    2.75857   2.76368   2.76724   2.76782   2.77096
 Alpha virt. eigenvalues --    2.77547   2.77802   2.78236   2.78562   2.78700
 Alpha virt. eigenvalues --    2.79155   2.79573   2.79795   2.80033   2.80523
 Alpha virt. eigenvalues --    2.80973   2.81261   2.81558   2.81959   2.82212
 Alpha virt. eigenvalues --    2.82484   2.82622   2.83012   2.83650   2.83763
 Alpha virt. eigenvalues --    2.84528   2.84656   2.85222   2.85339   2.85578
 Alpha virt. eigenvalues --    2.85821   2.86024   2.86189   2.86807   2.86929
 Alpha virt. eigenvalues --    2.87553   2.87677   2.87793   2.88309   2.88749
 Alpha virt. eigenvalues --    2.88896   2.89043   2.89307   2.89379   2.90116
 Alpha virt. eigenvalues --    2.90433   2.90727   2.90867   2.91122   2.91223
 Alpha virt. eigenvalues --    2.91498   2.91851   2.91975   2.92549   2.92748
 Alpha virt. eigenvalues --    2.92958   2.92998   2.93662   2.94102   2.94345
 Alpha virt. eigenvalues --    2.94607   2.94947   2.95269   2.95676   2.96213
 Alpha virt. eigenvalues --    2.96461   2.96767   2.97528   2.97784   2.98338
 Alpha virt. eigenvalues --    2.98652   2.99076   2.99585   2.99998   3.00278
 Alpha virt. eigenvalues --    3.00560   3.00897   3.01081   3.01189   3.01923
 Alpha virt. eigenvalues --    3.02304   3.02925   3.03275   3.03484   3.03937
 Alpha virt. eigenvalues --    3.04429   3.04642   3.05138   3.05476   3.05753
 Alpha virt. eigenvalues --    3.05948   3.06232   3.06528   3.07031   3.07209
 Alpha virt. eigenvalues --    3.07555   3.08112   3.08622   3.08815   3.09290
 Alpha virt. eigenvalues --    3.09542   3.09731   3.10008   3.10425   3.10957
 Alpha virt. eigenvalues --    3.11227   3.11440   3.11580   3.12071   3.12765
 Alpha virt. eigenvalues --    3.13056   3.13374   3.13829   3.14159   3.14428
 Alpha virt. eigenvalues --    3.14632   3.15193   3.15379   3.15535   3.15821
 Alpha virt. eigenvalues --    3.16264   3.16441   3.16810   3.17199   3.17796
 Alpha virt. eigenvalues --    3.17974   3.18679   3.18838   3.19122   3.19390
 Alpha virt. eigenvalues --    3.19528   3.19645   3.19996   3.20186   3.20578
 Alpha virt. eigenvalues --    3.20954   3.21433   3.21852   3.22102   3.22177
 Alpha virt. eigenvalues --    3.22576   3.23005   3.23380   3.23485   3.23784
 Alpha virt. eigenvalues --    3.23818   3.24091   3.24363   3.24627   3.24964
 Alpha virt. eigenvalues --    3.25223   3.25568   3.25751   3.26002   3.26403
 Alpha virt. eigenvalues --    3.26487   3.26740   3.26768   3.27224   3.27408
 Alpha virt. eigenvalues --    3.27647   3.27952   3.28419   3.28721   3.28877
 Alpha virt. eigenvalues --    3.29346   3.29609   3.29752   3.30153   3.30497
 Alpha virt. eigenvalues --    3.30790   3.30950   3.31547   3.31743   3.31992
 Alpha virt. eigenvalues --    3.32347   3.33026   3.33112   3.33417   3.33552
 Alpha virt. eigenvalues --    3.33813   3.33983   3.34218   3.34317   3.34518
 Alpha virt. eigenvalues --    3.35069   3.35379   3.35487   3.35705   3.35797
 Alpha virt. eigenvalues --    3.36482   3.36527   3.36805   3.37062   3.37369
 Alpha virt. eigenvalues --    3.37704   3.38009   3.38389   3.38522   3.38813
 Alpha virt. eigenvalues --    3.39003   3.39351   3.39595   3.39667   3.40028
 Alpha virt. eigenvalues --    3.40249   3.40353   3.40840   3.40999   3.41483
 Alpha virt. eigenvalues --    3.41630   3.41892   3.42167   3.42260   3.42325
 Alpha virt. eigenvalues --    3.42735   3.42935   3.43278   3.43326   3.43615
 Alpha virt. eigenvalues --    3.43991   3.44052   3.44229   3.44706   3.44966
 Alpha virt. eigenvalues --    3.45288   3.45636   3.45926   3.46211   3.46377
 Alpha virt. eigenvalues --    3.46542   3.47065   3.47468   3.47544   3.47641
 Alpha virt. eigenvalues --    3.48104   3.48317   3.48665   3.48803   3.48961
 Alpha virt. eigenvalues --    3.49076   3.49561   3.49677   3.50286   3.50619
 Alpha virt. eigenvalues --    3.51133   3.51237   3.51650   3.51879   3.52324
 Alpha virt. eigenvalues --    3.52867   3.52901   3.53029   3.53266   3.53945
 Alpha virt. eigenvalues --    3.54390   3.54559   3.54979   3.55040   3.55376
 Alpha virt. eigenvalues --    3.56148   3.56376   3.56583   3.56773   3.57083
 Alpha virt. eigenvalues --    3.57249   3.57510   3.57630   3.58183   3.58453
 Alpha virt. eigenvalues --    3.58586   3.58957   3.59104   3.59377   3.60032
 Alpha virt. eigenvalues --    3.60294   3.60483   3.60706   3.61154   3.61752
 Alpha virt. eigenvalues --    3.62108   3.62756   3.62876   3.63691   3.64365
 Alpha virt. eigenvalues --    3.64601   3.65133   3.65390   3.65807   3.66122
 Alpha virt. eigenvalues --    3.66642   3.66992   3.67235   3.67286   3.68448
 Alpha virt. eigenvalues --    3.69228   3.69509   3.69573   3.69833   3.70176
 Alpha virt. eigenvalues --    3.70671   3.71076   3.71187   3.71666   3.71978
 Alpha virt. eigenvalues --    3.72641   3.73128   3.73627   3.74073   3.74346
 Alpha virt. eigenvalues --    3.75103   3.75261   3.75388   3.75898   3.76753
 Alpha virt. eigenvalues --    3.76966   3.77459   3.78240   3.78378   3.78993
 Alpha virt. eigenvalues --    3.79517   3.79963   3.80475   3.80683   3.81151
 Alpha virt. eigenvalues --    3.81476   3.82061   3.82256   3.82580   3.82826
 Alpha virt. eigenvalues --    3.83570   3.83989   3.84297   3.85006   3.85743
 Alpha virt. eigenvalues --    3.85947   3.86402   3.86763   3.87206   3.87857
 Alpha virt. eigenvalues --    3.88554   3.88837   3.89542   3.89781   3.91221
 Alpha virt. eigenvalues --    3.91429   3.91611   3.91745   3.92352   3.93307
 Alpha virt. eigenvalues --    3.93400   3.95137   3.95181   3.95240   3.95868
 Alpha virt. eigenvalues --    3.96351   3.96595   3.97622   3.97878   3.98447
 Alpha virt. eigenvalues --    3.99250   4.00185   4.00416   4.00951   4.01556
 Alpha virt. eigenvalues --    4.02058   4.03340   4.03516   4.03849   4.04708
 Alpha virt. eigenvalues --    4.05074   4.05317   4.05919   4.06484   4.06695
 Alpha virt. eigenvalues --    4.07150   4.07476   4.08174   4.08380   4.09134
 Alpha virt. eigenvalues --    4.09598   4.10502   4.10968   4.12405   4.12540
 Alpha virt. eigenvalues --    4.13255   4.13640   4.13882   4.14518   4.14602
 Alpha virt. eigenvalues --    4.14720   4.14819   4.15370   4.15742   4.16216
 Alpha virt. eigenvalues --    4.16795   4.17004   4.17522   4.17928   4.18317
 Alpha virt. eigenvalues --    4.18577   4.18946   4.19040   4.19548   4.20241
 Alpha virt. eigenvalues --    4.20566   4.20944   4.21163   4.21850   4.22432
 Alpha virt. eigenvalues --    4.22861   4.22976   4.23390   4.23789   4.24100
 Alpha virt. eigenvalues --    4.24424   4.24945   4.25385   4.25466   4.25816
 Alpha virt. eigenvalues --    4.26255   4.27087   4.27384   4.27678   4.27856
 Alpha virt. eigenvalues --    4.28305   4.28987   4.29309   4.29687   4.30372
 Alpha virt. eigenvalues --    4.30453   4.31210   4.31765   4.32142   4.32455
 Alpha virt. eigenvalues --    4.33611   4.34035   4.34279   4.34427   4.35091
 Alpha virt. eigenvalues --    4.35416   4.35678   4.36384   4.37144   4.37996
 Alpha virt. eigenvalues --    4.38224   4.38335   4.38777   4.39216   4.39501
 Alpha virt. eigenvalues --    4.39799   4.40131   4.40763   4.41418   4.42206
 Alpha virt. eigenvalues --    4.42840   4.43503   4.43880   4.44509   4.44834
 Alpha virt. eigenvalues --    4.45277   4.45403   4.45775   4.46059   4.46242
 Alpha virt. eigenvalues --    4.46847   4.47774   4.48134   4.48944   4.49402
 Alpha virt. eigenvalues --    4.50006   4.50996   4.51205   4.52067   4.52861
 Alpha virt. eigenvalues --    4.53070   4.53413   4.54043   4.55441   4.55617
 Alpha virt. eigenvalues --    4.56097   4.57377   4.57685   4.59014   4.60416
 Alpha virt. eigenvalues --    4.61036   4.61916   4.62209   4.63259   4.65221
 Alpha virt. eigenvalues --    4.65514   4.66754   4.67723   4.68118   4.69206
 Alpha virt. eigenvalues --    4.69351   4.70557   4.72536   4.74216   4.74735
 Alpha virt. eigenvalues --    4.75315   4.75674   4.76497   4.76871   4.77329
 Alpha virt. eigenvalues --    4.77911   4.79792   4.80394   4.80517   4.80957
 Alpha virt. eigenvalues --    4.82430   4.82725   4.84710   4.85421   4.86368
 Alpha virt. eigenvalues --    4.86853   4.87734   4.89041   4.89758   4.90617
 Alpha virt. eigenvalues --    4.91515   4.93148   4.94383   4.94592   4.95675
 Alpha virt. eigenvalues --    4.96634   4.97072   4.97765   4.98252   4.99604
 Alpha virt. eigenvalues --    5.00272   5.03664   5.04679   5.05267   5.05744
 Alpha virt. eigenvalues --    5.06038   5.07164   5.08196   5.09122   5.10179
 Alpha virt. eigenvalues --    5.11010   5.11555   5.11879   5.12431   5.13063
 Alpha virt. eigenvalues --    5.14113   5.14842   5.15216   5.16937   5.17599
 Alpha virt. eigenvalues --    5.18485   5.18762   5.19267   5.21143   5.21385
[...]
 
              Baa    -0.0017    -0.906    -0.323    -0.302 -0.3214  0.9470  0.0001
    35 H(1)   Bbb    -0.0006    -0.298    -0.106    -0.099  0.5047  0.1712  0.8462
              Bcc     0.0023     1.204     0.430     0.402  0.8013  0.2720 -0.5329
 
              Baa    -0.0057    -0.770    -0.275    -0.257 -0.2927  0.7673 -0.5706
    36 C(13)  Bbb    -0.0049    -0.662    -0.236    -0.221  0.6485  0.5978  0.4712
              Bcc     0.0107     1.433     0.511     0.478  0.7027 -0.2321 -0.6726
 
              Baa    -0.0037    -1.972    -0.704    -0.658  0.1856  0.9812 -0.0527
    37 H(1)   Bbb    -0.0022    -1.193    -0.426    -0.398  0.8464 -0.1325  0.5158
              Bcc     0.0059     3.165     1.129     1.056 -0.4991  0.1403  0.8551
 
              Baa    -0.0068    -0.916    -0.327    -0.306  0.1713  0.5385  0.8250
    38 C(13)  Bbb    -0.0059    -0.787    -0.281    -0.263 -0.1729  0.8408 -0.5130
              Bcc     0.0127     1.703     0.608     0.568  0.9699  0.0548 -0.2372
 
              Baa    -0.0032    -1.703    -0.608    -0.568  0.1032  0.9826  0.1542
    39 H(1)   Bbb    -0.0025    -1.307    -0.466    -0.436  0.4462 -0.1843  0.8758
              Bcc     0.0056     3.011     1.074     1.004  0.8890 -0.0215 -0.4574
 
              Baa    -0.0603     4.365     1.557     1.456  0.7781  0.0345  0.6272
    40 O(17)  Bbb     0.0240    -1.736    -0.619    -0.579 -0.4211  0.7695  0.4801
              Bcc     0.0363    -2.629    -0.938    -0.877  0.4661  0.6377 -0.6133
 
              Baa    -0.0464     3.355     1.197     1.119  0.3639 -0.0093  0.9314
    41 O(17)  Bbb     0.0096    -0.693    -0.247    -0.231  0.8344  0.4476 -0.3215
              Bcc     0.0368    -2.662    -0.950    -0.888 -0.4139  0.8942  0.1707
 
              Baa    -1.2409    59.267    21.148    19.769  0.9930  0.0746 -0.0916
    42 Ni(61) Bbb    -0.7019    33.525    11.962    11.183  0.0783  0.1653  0.9831
              Bcc     1.9428   -92.792   -33.110   -30.952 -0.0885  0.9834 -0.1583
 
              Baa    -0.1261    -6.597    -2.354    -2.201  0.0034 -0.3330  0.9429
    43 Cl(35) Bbb    -0.0257    -1.346    -0.480    -0.449  0.7744 -0.5957 -0.2131
              Bcc     0.1518     7.943     2.834     2.650  0.6326  0.7310  0.2559
 
              Baa    -0.0042    -0.570    -0.203    -0.190 -0.0141  0.8697 -0.4933
    44 C(13)  Bbb    -0.0012    -0.166    -0.059    -0.055  0.6261  0.3924  0.6738
              Bcc     0.0055     0.736     0.263     0.246  0.7796 -0.2994 -0.5501
 
              Baa    -0.0022    -0.291    -0.104    -0.097  0.0700 -0.1886  0.9796
    45 C(13)  Bbb    -0.0016    -0.220    -0.079    -0.074  0.2904  0.9433  0.1609
              Bcc     0.0038     0.512     0.183     0.171  0.9544 -0.2732 -0.1208
 
              Baa    -0.0035    -1.883    -0.672    -0.628 -0.1327 -0.6919  0.7097
    46 H(1)   Bbb    -0.0030    -1.612    -0.575    -0.538  0.1537  0.6930  0.7044
              Bcc     0.0065     3.495     1.247     1.166  0.9792 -0.2026 -0.0144
 
              Baa    -0.0013    -0.697    -0.249    -0.232  0.0049  0.9241 -0.3820
    47 H(1)   Bbb    -0.0010    -0.519    -0.185    -0.173  0.2761  0.3659  0.8887
              Bcc     0.0023     1.216     0.434     0.406  0.9611 -0.1098 -0.2534
 
              Baa    -0.0013    -0.695    -0.248    -0.232  0.2891  0.7236 -0.6267
    48 H(1)   Bbb    -0.0012    -0.617    -0.220    -0.206  0.3214  0.5433  0.7756
              Bcc     0.0025     1.312     0.468     0.438  0.9017 -0.4257 -0.0755
 
              Baa    -0.0011    -0.149    -0.053    -0.050  0.5409  0.8280  0.1479
    49 C(13)  Bbb    -0.0010    -0.130    -0.046    -0.043  0.4098 -0.4130  0.8133
              Bcc     0.0021     0.279     0.100     0.093  0.7345 -0.3793 -0.5627
 
              Baa    -0.0009    -0.504    -0.180    -0.168  0.0541  0.8979 -0.4369
    50 H(1)   Bbb    -0.0007    -0.397    -0.142    -0.132  0.8027  0.2211  0.5538
              Bcc     0.0017     0.901     0.322     0.301 -0.5939  0.3807  0.7088
 
              Baa    -0.0007    -0.390    -0.139    -0.130  0.2075  0.8094 -0.5494
    51 H(1)   Bbb    -0.0007    -0.350    -0.125    -0.117  0.6432  0.3102  0.7000
              Bcc     0.0014     0.740     0.264     0.247  0.7370 -0.4986 -0.4562
 
              Baa    -0.0007    -0.399    -0.142    -0.133  0.0981  0.9697 -0.2239
    52 H(1)   Bbb    -0.0006    -0.308    -0.110    -0.103  0.5988  0.1221  0.7915
              Bcc     0.0013     0.707     0.252     0.236  0.7948 -0.2117 -0.5687
 
              Baa    -0.0043    -0.574    -0.205    -0.191  0.6720  0.7045 -0.2281
    53 C(13)  Bbb    -0.0038    -0.512    -0.183    -0.171  0.4869 -0.1883  0.8529
              Bcc     0.0081     1.087     0.388     0.362 -0.5579  0.6843  0.4696
 
              Baa    -0.0088    -4.693    -1.675    -1.566  0.8445  0.5356 -0.0085
    54 H(1)   Bbb    -0.0085    -4.510    -1.609    -1.505  0.1382 -0.2024  0.9695
              Bcc     0.0173     9.204     3.284     3.070 -0.5175  0.8199  0.2449
 
              Baa    -0.0019    -1.024    -0.365    -0.342  0.6623  0.5898 -0.4621
    55 H(1)   Bbb    -0.0018    -0.959    -0.342    -0.320  0.5026  0.1078  0.8578
              Bcc     0.0037     1.983     0.707     0.661 -0.5557  0.8004  0.2250
 
              Baa    -0.0032    -1.700    -0.607    -0.567  0.3890  0.6785 -0.6232
    56 H(1)   Bbb    -0.0024    -1.297    -0.463    -0.433  0.8513 -0.0063  0.5246
              Bcc     0.0056     2.997     1.069     1.000 -0.3520  0.7346  0.5801
 
              Baa    -0.0044    -0.590    -0.210    -0.197  0.1182  0.8647  0.4882
    57 C(13)  Bbb    -0.0005    -0.062    -0.022    -0.021  0.0058 -0.4922  0.8705
              Bcc     0.0049     0.652     0.233     0.218  0.9930 -0.1001 -0.0632
 
              Baa    -0.0018    -0.237    -0.085    -0.079  0.2483  0.8818 -0.4010
    58 C(13)  Bbb    -0.0013    -0.180    -0.064    -0.060 -0.3486  0.4675  0.8123
              Bcc     0.0031     0.417     0.149     0.139  0.9038 -0.0619  0.4235
 
              Baa    -0.0032    -1.681    -0.600    -0.561  0.1641  0.9826 -0.0873
    59 H(1)   Bbb    -0.0021    -1.094    -0.390    -0.365 -0.5220  0.1615  0.8375
              Bcc     0.0052     2.775     0.990     0.926  0.8370 -0.0918  0.5394
 
              Baa    -0.0013    -0.699    -0.250    -0.233  0.3180  0.9443 -0.0842
    60 H(1)   Bbb    -0.0007    -0.386    -0.138    -0.129 -0.3154  0.1892  0.9299
              Bcc     0.0020     1.086     0.387     0.362  0.8941 -0.2691  0.3580
 
              Baa    -0.0011    -0.578    -0.206    -0.193  0.0739  0.9391 -0.3357
    61 H(1)   Bbb    -0.0009    -0.462    -0.165    -0.154 -0.4266  0.3340  0.8405
              Bcc     0.0020     1.040     0.371     0.347  0.9014  0.0811  0.4253
 
              Baa    -0.0024    -0.329    -0.117    -0.110  0.2612 -0.5410  0.7995
    62 C(13)  Bbb    -0.0021    -0.281    -0.100    -0.094 -0.4591  0.6589  0.5958
              Bcc     0.0045     0.609     0.217     0.203  0.8491  0.5227  0.0763
 
              Baa    -0.0022    -1.169    -0.417    -0.390  0.3962 -0.2312  0.8886
    63 H(1)   Bbb    -0.0019    -1.016    -0.363    -0.339 -0.4212  0.8142  0.3996
              Bcc     0.0041     2.185     0.780     0.729  0.8158  0.5326 -0.2252
 
              Baa    -0.0059    -3.141    -1.121    -1.048  0.2579 -0.5404  0.8009
    64 H(1)   Bbb    -0.0043    -2.282    -0.814    -0.761  0.5893 -0.5689 -0.5736
              Bcc     0.0102     5.423     1.935     1.809  0.7657  0.6199  0.1718
 
              Baa    -0.0015    -0.777    -0.277    -0.259 -0.3169  0.6869 -0.6540
    65 H(1)   Bbb    -0.0013    -0.692    -0.247    -0.231 -0.4341  0.5081  0.7439
              Bcc     0.0028     1.469     0.524     0.490  0.8433  0.5196  0.1372
 
              Baa    -0.0010    -0.128    -0.046    -0.043  0.0310  0.7333 -0.6792
    66 C(13)  Bbb    -0.0006    -0.076    -0.027    -0.025 -0.0580  0.6797  0.7312
              Bcc     0.0015     0.204     0.073     0.068  0.9978  0.0167  0.0636
 
              Baa    -0.0007    -0.389    -0.139    -0.130  0.2404 -0.1862  0.9527
    67 H(1)   Bbb    -0.0007    -0.361    -0.129    -0.121 -0.0846  0.9737  0.2117
              Bcc     0.0014     0.751     0.268     0.250  0.9670  0.1314 -0.2183
 
              Baa    -0.0006    -0.310    -0.111    -0.103 -0.1463  0.9167 -0.3719
    68 H(1)   Bbb    -0.0005    -0.293    -0.105    -0.098 -0.1209  0.3566  0.9264
              Bcc     0.0011     0.603     0.215     0.201  0.9818  0.1805  0.0587
 
              Baa    -0.0006    -0.339    -0.121    -0.113  0.0590  0.9321 -0.3574
    69 H(1)   Bbb    -0.0005    -0.260    -0.093    -0.087 -0.0013  0.3581  0.9337
              Bcc     0.0011     0.599     0.214     0.200  0.9983 -0.0546  0.0224
 
              Baa    -0.0098    -5.255    -1.875    -1.753 -0.0605  0.7100 -0.7016
    70 H(1)   Bbb    -0.0034    -1.803    -0.643    -0.601  0.9812 -0.0868 -0.1725
              Bcc     0.0132     7.058     2.518     2.354  0.1834  0.6988  0.6914
 
              Baa    -0.0052    -0.698    -0.249    -0.233 -0.2635  0.5263  0.8084
    71 C(13)  Bbb    -0.0039    -0.520    -0.186    -0.174  0.9622  0.2037  0.1810
              Bcc     0.0091     1.219     0.435     0.406 -0.0694  0.8255 -0.5601
 
              Baa    -0.0025    -0.331    -0.118    -0.110  0.6881 -0.2699 -0.6736
    72 C(13)  Bbb    -0.0022    -0.302    -0.108    -0.101  0.6728  0.5849  0.4529
              Bcc     0.0047     0.632     0.226     0.211 -0.2718  0.7649 -0.5840
 
              Baa    -0.0041    -0.555    -0.198    -0.185 -0.0666  0.1850  0.9805
    73 C(13)  Bbb    -0.0032    -0.435    -0.155    -0.145  0.9854 -0.1421  0.0937
              Bcc     0.0074     0.990     0.353     0.330  0.1566  0.9724 -0.1728
 
              Baa    -0.0017    -0.227    -0.081    -0.076  0.5918  0.4751  0.6512
    74 C(13)  Bbb    -0.0007    -0.098    -0.035    -0.033  0.7925 -0.1952 -0.5778
              Bcc     0.0024     0.325     0.116     0.108 -0.1474  0.8580 -0.4920
 
              Baa    -0.0020    -1.046    -0.373    -0.349  0.1087  0.7966  0.5947
    75 H(1)   Bbb    -0.0018    -0.935    -0.334    -0.312  0.9488  0.0954 -0.3012
              Bcc     0.0037     1.981     0.707     0.661  0.2967 -0.5969  0.7454
 
              Baa    -0.0022    -0.300    -0.107    -0.100  0.5384  0.0756  0.8393
    76 C(13)  Bbb    -0.0015    -0.207    -0.074    -0.069  0.8150 -0.3000 -0.4958
              Bcc     0.0038     0.507     0.181     0.169  0.2143  0.9509 -0.2231
 
              Baa    -0.0064    -3.403    -1.214    -1.135  0.1934  0.0701  0.9786
    77 H(1)   Bbb    -0.0035    -1.882    -0.672    -0.628  0.9082 -0.3901 -0.1515
              Bcc     0.0099     5.285     1.886     1.763  0.3711  0.9181 -0.1392
 
              Baa    -0.0017    -0.223    -0.079    -0.074 -0.6754  0.0434  0.7361
    78 C(13)  Bbb    -0.0009    -0.119    -0.042    -0.040  0.7263  0.2118  0.6540
              Bcc     0.0025     0.342     0.122     0.114 -0.1275  0.9764 -0.1745
 
              Baa    -0.0009    -0.460    -0.164    -0.153  0.2105  0.5277  0.8229
    79 H(1)   Bbb    -0.0008    -0.415    -0.148    -0.139  0.9157  0.1883 -0.3550
              Bcc     0.0016     0.875     0.312     0.292 -0.3423  0.8283 -0.4436
 
              Baa    -0.0015    -0.785    -0.280    -0.262  0.0289 -0.0559  0.9980
    80 H(1)   Bbb    -0.0012    -0.645    -0.230    -0.215  0.9770 -0.2096 -0.0400
              Bcc     0.0027     1.430     0.510     0.477  0.2114  0.9762  0.0486
 
              Baa    -0.0008    -0.402    -0.144    -0.134 -0.2577  0.1015  0.9609
    81 H(1)   Bbb    -0.0007    -0.359    -0.128    -0.120  0.9597  0.1427  0.2423
              Bcc     0.0014     0.761     0.272     0.254 -0.1125  0.9845 -0.1342
 
              Baa    -0.0110    -5.844    -2.085    -1.949  0.1877  0.9541  0.2335
    82 H(1)   Bbb    -0.0081    -4.340    -1.549    -1.448 -0.6851 -0.0432  0.7271
              Bcc     0.0191    10.183     3.634     3.397  0.7038 -0.2965  0.6455
 
              Baa    -0.0078    -1.041    -0.372    -0.347 -0.0182  0.9734 -0.2282
    83 C(13)  Bbb    -0.0024    -0.327    -0.117    -0.109  0.9049 -0.0810 -0.4179
              Bcc     0.0102     1.368     0.488     0.456  0.4252  0.2141  0.8794
 
              Baa    -0.0115    -1.547    -0.552    -0.516 -0.5440  0.0804  0.8352
    84 C(13)  Bbb     0.0025     0.338     0.121     0.113 -0.1158  0.9787 -0.1697
              Bcc     0.0090     1.209     0.431     0.403  0.8311  0.1890  0.5231
 
              Baa    -0.0098    -1.320    -0.471    -0.440 -0.2068 -0.1556  0.9659
    85 C(13)  Bbb     0.0000     0.001     0.000     0.000  0.7384 -0.6725  0.0498
              Bcc     0.0098     1.318     0.470     0.440  0.6418  0.7236  0.2540
 
              Baa    -0.0020    -0.273    -0.097    -0.091 -0.0758  0.9894 -0.1235
    86 C(13)  Bbb     0.0000     0.005     0.002     0.002  0.9971  0.0758 -0.0048
              Bcc     0.0020     0.268     0.096     0.089 -0.0047  0.1236  0.9923
 
              Baa    -0.0027    -0.357    -0.127    -0.119 -0.6649  0.6787 -0.3120
    87 C(13)  Bbb     0.0010     0.137     0.049     0.046  0.6656  0.7279  0.1650
              Bcc     0.0016     0.220     0.078     0.073 -0.3391  0.0979  0.9356
 
              Baa    -0.0081    -1.085    -0.387    -0.362 -0.2945  0.0046  0.9556
    88 C(13)  Bbb     0.0030     0.403     0.144     0.134 -0.5175  0.8399 -0.1636
              Bcc     0.0051     0.682     0.243     0.228  0.8034  0.5427  0.2450
 
              Baa    -0.0024    -1.272    -0.454    -0.424 -0.0945  0.9749  0.2017
    89 H(1)   Bbb    -0.0015    -0.798    -0.285    -0.266 -0.4815 -0.2221  0.8479
              Bcc     0.0039     2.069     0.738     0.690  0.8714 -0.0170  0.4903
 
              Baa    -0.0068    -3.612    -1.289    -1.205  0.1771 -0.4446  0.8780
    90 H(1)   Bbb    -0.0035    -1.877    -0.670    -0.626  0.8796 -0.3286 -0.3439
              Bcc     0.0103     5.489     1.958     1.831  0.4414  0.8333  0.3329
 
              Baa    -0.0007    -0.386    -0.138    -0.129 -0.0567  0.9346 -0.3512
    91 H(1)   Bbb    -0.0004    -0.199    -0.071    -0.066 -0.4259  0.2955  0.8552
              Bcc     0.0011     0.585     0.209     0.195  0.9030  0.1980  0.3813
 
              Baa    -0.0013    -0.698    -0.249    -0.233  0.5313 -0.3947  0.7497
    92 H(1)   Bbb    -0.0004    -0.239    -0.085    -0.080  0.6702 -0.3456 -0.6569
              Bcc     0.0018     0.938     0.335     0.313  0.5183  0.8514  0.0809
 
              Baa    -0.0069     0.497     0.177     0.166 -0.2611  0.0578  0.9636
    93 O(17)  Bbb     0.0027    -0.192    -0.069    -0.064 -0.6579  0.7198 -0.2214
              Bcc     0.0042    -0.304    -0.109    -0.102  0.7064  0.6917  0.1499
 
              Baa    -0.0003    -0.042    -0.015    -0.014 -0.5019  0.7847 -0.3638
    94 C(13)  Bbb    -0.0002    -0.021    -0.007    -0.007 -0.4009  0.1616  0.9017
              Bcc     0.0005     0.063     0.022     0.021  0.7664  0.5985  0.2335
 
              Baa    -0.0003    -0.159    -0.057    -0.053 -0.4387  0.8493 -0.2937
    95 H(1)   Bbb    -0.0002    -0.101    -0.036    -0.034 -0.3129  0.1620  0.9359
              Bcc     0.0005     0.260     0.093     0.087  0.8424  0.5025  0.1946
 
              Baa    -0.0003    -0.154    -0.055    -0.051 -0.2573  0.7993 -0.5431
    96 H(1)   Bbb    -0.0002    -0.090    -0.032    -0.030 -0.5356  0.3498  0.7686
              Bcc     0.0005     0.244     0.087     0.081  0.8043  0.4887  0.3381
 
              Baa    -0.0002    -0.095    -0.034    -0.032 -0.4301  0.6958 -0.5752
    97 H(1)   Bbb    -0.0001    -0.061    -0.022    -0.020 -0.5134  0.3356  0.7898
              Bcc     0.0003     0.156     0.056     0.052  0.7426  0.6350  0.2129
 

 ---------------------------------------------------------------------------------

 1\1\GINC-M9-16-3\SP\UM06L\Gen\C41H46Cl1N4Ni2O3(2)\MALLA1\24-Aug-2022\0
 \\#m06l/gen pseudo=read integral=ultrafine temperature=308 scrf=(read)
 \\Title Card Required\\0,2\C,0,1.761956,-3.327033,-2.058778\C,0,0.7649
 16,-4.267977,-1.792863\C,0,-0.470134,-3.843119,-1.21638\C,0,-0.592864,
 -2.44736,-0.840238\C,0,1.54863,-1.980155,-1.692935\H,0,-1.531616,-5.75
 4965,-1.260931\H,0,2.687832,-3.604647,-2.58298\H,0,0.894756,-5.323353,
 -2.078413\C,0,-1.603261,-4.683859,-1.016336\C,0,-2.84579,-2.758385,-0.
 247019\C,0,-2.800495,-4.136717,-0.546792\H,0,-3.703347,-4.751389,-0.42
 0211\N,0,-1.753752,-1.943892,-0.347944\N,0,0.43199,-1.567908,-1.015039
 \C,0,2.368852,-0.865222,-2.145002\C,0,-4.040098,-2.031166,0.164703\N,0
 ,2.090101,0.373124,-1.82931\N,0,-4.022835,-0.734464,0.32363\Ni,0,-2.01
 8111,-0.056451,0.347754\C,0,0.399006,0.461772,1.780387\C,0,1.751734,0.
 554574,1.396267\C,0,-1.763233,-0.331357,2.304997\H,0,-2.569678,-0.9583
 78,2.720142\C,0,-0.302679,-0.734015,2.427057\H,0,0.011367,-0.799246,3.
 50319\C,0,-1.865168,1.069749,2.096547\H,0,-2.76505,1.661964,2.329977\C
 ,0,-0.465698,1.672262,2.222152\H,0,-0.255641,1.751726,3.325207\C,0,-6.
 174184,-1.654066,0.757414\H,0,-6.581352,-1.91006,1.755256\H,0,-6.99774
 6,-1.691486,0.015331\C,0,3.903734,0.234674,-3.351923\H,0,4.020762,0.30
 989,-4.449213\H,0,4.903204,0.305712,-2.871847\C,0,2.870986,1.230751,-2
 .755756\H,0,2.158871,1.547652,-3.555501\C,0,-5.37338,-0.311684,0.73732
 3\H,0,-5.306636,0.108715,1.767447\O,0,3.354547,-1.080794,-3.049372\O,0
 ,-5.204193,-2.680736,0.391313\Ni,0,0.556356,0.357748,-0.347273\Cl,0,-1
 .398813,1.210833,-1.578367\C,0,3.463971,2.54406,-2.167146\C,0,4.446634
 ,2.261207,-1.014544\H,0,3.969032,1.645868,-0.22762\H,0,5.356886,1.7244
 07,-1.355216\H,0,4.782702,3.213564,-0.553738\C,0,4.196729,3.28803,-3.3
 08494\H,0,3.515118,3.495295,-4.16102\H,0,4.584547,4.262328,-2.944317\H
 ,0,5.064698,2.712494,-3.695162\C,0,2.303592,3.42279,-1.658613\H,0,1.75
 289,2.934179,-0.829486\H,0,2.686482,4.393988,-1.282329\H,0,1.573101,3.
 633916,-2.467462\C,0,-5.971622,0.814976,-0.17028\C,0,-5.985299,0.37887
 5,-1.649972\H,0,-4.95665,0.171877,-2.010562\H,0,-6.60171,-0.530081,-1.
 81794\H,0,-6.412855,1.184166,-2.283025\C,0,-5.101816,2.080933,-0.01880
 1\H,0,-5.084625,2.431714,1.035418\H,0,-4.056498,1.888625,-0.336645\H,0
 ,-5.508325,2.905745,-0.64124\C,0,-7.40629,1.123501,0.312832\H,0,-7.418
 542,1.417269,1.384544\H,0,-7.834569,1.965369,-0.270311\H,0,-8.090877,0
 .257754,0.187798\H,0,-0.075887,-1.716138,1.971491\C,0,-0.185347,3.0646
 ,1.68636\C,0,0.867022,3.822045,2.256222\C,0,-0.982751,3.675196,0.69461
 1\C,0,1.125643,5.139165,1.840168\H,0,1.478518,3.376571,3.059413\C,0,-0
 .732268,4.996914,0.28257\H,0,-1.795556,3.095711,0.234599\C,0,0.322482,
 5.73383,0.849491\H,0,1.948205,5.70885,2.302377\H,0,-1.370985,5.454168,
 -0.490558\H,0,0.513466,6.77035,0.527644\H,0,2.128615,1.589407,1.286452
 \C,0,2.837777,-0.436199,1.5999\C,0,4.122626,0.046502,1.954143\C,0,2.69
 3151,-1.847941,1.513358\C,0,5.206108,-0.807827,2.221567\C,0,3.759424,-
 2.713103,1.774459\C,0,5.030856,-2.205992,2.13335\H,0,4.278245,1.133618
 ,2.047768\H,0,1.727865,-2.280041,1.218089\H,0,6.176112,-0.37243,2.5008
 16\H,0,3.632418,-3.804062,1.698108\O,0,6.006851,-3.130538,2.367185\C,0
 ,7.305054,-2.670611,2.725222\H,0,7.754935,-2.039645,1.926021\H,0,7.290
 842,-2.090899,3.675382\H,0,7.92844,-3.573762,2.864331\\Version=ES64L-G
 16RevB.01\State=2-A\HF=-2834.2662971\S2=1.716363\S2-1=0.\S2A=0.998566\
 RMSD=2.746e-09\Dipole=1.0608089,-0.9738652,0.6788606\Quadrupole=27.243
 2075,-10.4101199,-16.8330876,8.8579353,-6.6774086,0.5308249\PG=C01 [X(
 C41H46Cl1N4Ni2O3)]\\@


 I DO NOT DEFINE TIME, SPACE, PLACE, AND MOTION, AS BEING WELL KNOWN TO ALL.
                                            -- NEWTON (1642-1726), PRINCIPIA
 Job cpu time:       1 days  7 hours 18 minutes 40.3 seconds.
 Elapsed time:       0 days  2 hours 37 minutes 15.5 seconds.
 File lengths (MBytes):  RWF=   3711 Int=      0 D2E=      0 Chk=    238 Scr=      1
 Normal termination of Gaussian 16 at Wed Aug 24 17:56:45 2022.
