 Entering Gaussian System, Link 0=g16
 Input=Pro_R_E_tsd2_4.com
 Output=Pro_R_E_tsd2_4.log
 Initial command:
 /apps/gaussian16/B.01/AVX2/g16/l1.exe "/tmp/49628792/Gau-2796.inp" -scrdir="/tmp/49628792/"
 Entering Link 1 = /apps/gaussian16/B.01/AVX2/g16/l1.exe PID=      2797.
  
 Copyright (c) 1988-2017, Gaussian, Inc.  All Rights Reserved.
  
 This is part of the Gaussian(R) 16 program.  It is based on
 the Gaussian(R) 09 system (copyright 2009, Gaussian, Inc.),
 the Gaussian(R) 03 system (copyright 2003, Gaussian, Inc.),
 the Gaussian(R) 98 system (copyright 1998, Gaussian, Inc.),
 the Gaussian(R) 94 system (copyright 1995, Gaussian, Inc.),
 the Gaussian 92(TM) system (copyright 1992, Gaussian, Inc.),
 the Gaussian 90(TM) system (copyright 1990, Gaussian, Inc.),
 the Gaussian 88(TM) system (copyright 1988, Gaussian, Inc.),
 the Gaussian 86(TM) system (copyright 1986, Carnegie Mellon
 University), and the Gaussian 82(TM) system (copyright 1983,
 Carnegie Mellon University). Gaussian is a federally registered
 trademark of Gaussian, Inc.
  
 This software contains proprietary and confidential information,
 including trade secrets, belonging to Gaussian, Inc.
  
 This software is provided under written license and may be
 used, copied, transmitted, or stored only in accord with that
 written license.
  
 The following legend is applicable only to US Government
 contracts under FAR:
  
                    RESTRICTED RIGHTS LEGEND
  
 Use, reproduction and disclosure by the US Government is
 subject to restrictions as set forth in subparagraphs (a)
 and (c) of the Commercial Computer Software - Restricted
 Rights clause in FAR 52.227-19.
  
 Gaussian, Inc.
 340 Quinnipiac St., Bldg. 40, Wallingford CT 06492
  
  
 ---------------------------------------------------------------
 Warning -- This program may not be used in any manner that
 competes with the business of Gaussian, Inc. or will provide
 assistance to any competitor of Gaussian, Inc.  The licensee
 of this program is prohibited from giving any competitor of
 Gaussian, Inc. access to this program.  By using this program,
 the user acknowledges that Gaussian, Inc. is engaged in the
 business of creating and licensing software in the field of
 computational chemistry and represents and warrants to the
 licensee that it is not a competitor of Gaussian, Inc. and that
 it will not use this program in any manner prohibited above.
 ---------------------------------------------------------------
  

 Cite this work as:
 Gaussian 16, Revision B.01,
 M. J. Frisch, G. W. Trucks, H. B. Schlegel, G. E. Scuseria, 
 M. A. Robb, J. R. Cheeseman, G. Scalmani, V. Barone, 
 G. A. Petersson, H. Nakatsuji, X. Li, M. Caricato, A. V. Marenich, 
 J. Bloino, B. G. Janesko, R. Gomperts, B. Mennucci, H. P. Hratchian, 
 J. V. Ortiz, A. F. Izmaylov, J. L. Sonnenberg, D. Williams-Young, 
 F. Ding, F. Lipparini, F. Egidi, J. Goings, B. Peng, A. Petrone, 
 T. Henderson, D. Ranasinghe, V. G. Zakrzewski, J. Gao, N. Rega, 
 G. Zheng, W. Liang, M. Hada, M. Ehara, K. Toyota, R. Fukuda, 
 J. Hasegawa, M. Ishida, T. Nakajima, Y. Honda, O. Kitao, H. Nakai, 
 T. Vreven, K. Throssell, J. A. Montgomery, Jr., J. E. Peralta, 
 F. Ogliaro, M. J. Bearpark, J. J. Heyd, E. N. Brothers, K. N. Kudin, 
 V. N. Staroverov, T. A. Keith, R. Kobayashi, J. Normand, 
 K. Raghavachari, A. P. Rendell, J. C. Burant, S. S. Iyengar, 
 J. Tomasi, M. Cossi, J. M. Millam, M. Klene, C. Adamo, R. Cammi, 
 J. W. Ochterski, R. L. Martin, K. Morokuma, O. Farkas, 
 J. B. Foresman, and D. J. Fox, Gaussian, Inc., Wallingford CT, 2016.
 
 ******************************************
 Gaussian 16:  ES64L-G16RevB.01 20-Dec-2017
                 2-Jun-2022 
 ******************************************
 %nprocshared=12
 Will use up to   12 processors via shared memory.
 %mem=24GB
 %chk=Pro_R_E_tsd2_4.chk
 ----------------------------------------------------------------------
 #opt=(calcfc,ts,noeigen) freq=noraman bp86/gen pseudo=read integral=ul
 trafine temperature=308 scrf=(read)
 ----------------------------------------------------------------------
 1/5=1,10=4,11=1,18=20,26=6,38=1,40=2,112=308000/1,3;
 2/9=110,12=2,17=6,18=5,40=1/2;
 3/5=7,11=2,16=1,17=8,25=1,30=1,70=2203,71=2,74=404,75=-5,140=1/1,2,3;
 4//1;
 5/5=2,38=5/2;
 8/6=4,10=90,11=11/1;
 11/6=1,8=1,9=11,15=111,16=1/1,2,10;
 10/6=1,13=1/2;
 6/7=2,8=2,9=2,10=2,28=1/1;
 7/10=1,18=20,25=1/1,2,3,16;
 1/5=1,10=4,11=1,18=20,26=6/3(2);
 2/9=110/2;
 99//99;
 2/9=110/2;
 3/5=7,6=1,11=2,16=1,17=8,25=1,30=1,70=2205,71=1,74=404,75=-5,82=7/1,2,3;
 4/5=5,16=3,69=1/1;
 5/5=2,38=5/2;
 7//1,2,3,16;
 1/5=1,11=1,18=20,26=6/3(-5);
 2/9=110/2;
 6/7=2,8=2,9=2,10=2,19=2,28=1/1;
 99/9=1/99;
 -------------------
 Title Card Required
 -------------------
 Symbolic Z-matrix:
 Charge =  0 Multiplicity = 4
 C                     3.13177  -0.19464   3.01292 
 C                     2.27905   0.62373   3.75473 
 C                     0.91841   0.77401   3.35408 
 C                     0.52107   0.14615   2.11416 
 C                     2.62478  -0.86288   1.87552 
 H                     0.17445   1.94568   5.04836 
 H                     4.17351  -0.36547   3.32023 
 H                     2.63491   1.12572   4.66752 
 C                    -0.09105   1.45513   4.09941 
 C                    -1.70881   0.82273   2.41231 
 C                    -1.41307   1.43453   3.6512 
 H                    -2.22694   1.87786   4.24307 
 N                    -0.73608   0.28613   1.61228 
 N                     1.34885  -0.67588   1.42079 
 C                     3.30038  -1.92814   1.1533 
 C                    -3.02363   0.60874   1.83942 
 N                     2.70915  -2.54832   0.16262 
 N                    -3.15444  -0.03475   0.70194 
 Ni                   -1.24953  -0.0387   -0.22721 
 C                     0.06508   1.16487  -1.1247 
 C                     0.27559   2.43055  -0.63926 
 C                    -1.22254  -0.76886  -2.13927 
 H                    -1.96262  -1.55545  -2.34862 
 C                    -1.48685   0.6756   -2.25261 
 H                    -0.83858   1.18107  -2.99995 
 C                     0.15877  -1.06919  -1.92794 
 H                     0.56788  -2.02093  -2.31008 
 C                     0.99919   0.20737  -1.84825 
 H                     1.28703   0.58229  -2.8665 
 H                    -0.58668   2.90845  -0.13786 
 C                    -5.23796   0.68922   1.5606 
 H                    -5.58169   1.64046   1.10275 
 H                    -6.06385   0.25543   2.15571 
 C                     4.69232  -3.64972   0.84782 
 H                     4.5451   -4.47314   1.57715 
 H                     5.73613  -3.67528   0.48199 
 C                     3.61255  -3.63944  -0.27609 
 H                     3.02905  -4.58503  -0.26658 
 C                    -4.6041   -0.27727   0.52119 
 H                    -4.89314   0.01896  -0.50785 
 O                     4.5008   -2.39017   1.56086 
 O                    -4.14609   1.00504   2.47815 
 Ni                    0.70483  -1.94289   0.01238 
 Cl                   -0.37057  -3.94456  -0.20536 
 C                     4.19066  -3.46912  -1.72442 
 C                     5.02036  -2.1736   -1.84567 
 H                     4.40489  -1.27979  -1.61227 
 H                     5.90182  -2.16892  -1.17057 
 H                     5.40198  -2.05665  -2.88156 
 C                     5.07505  -4.6997   -2.03182 
 H                     4.49341  -5.64272  -1.95188 
 H                     5.47226  -4.63577  -3.06625 
 H                     5.94825  -4.77883  -1.35066 
 C                     3.03298  -3.43293  -2.7413 
 H                     2.41901  -2.52175  -2.61127 
 H                     3.43015  -3.4271   -3.77807 
 H                     2.36601  -4.3135   -2.63374 
 C                    -4.99178  -1.79023   0.70001 
 C                    -4.63359  -2.29724   2.1131 
 H                    -3.54195  -2.22744   2.29812 
 H                    -5.15988  -1.73337   2.91198 
 H                    -4.92042  -3.36419   2.22064 
 C                    -4.2438   -2.64037  -0.34801 
 H                    -4.47112  -2.29743  -1.37958 
 H                    -3.14531  -2.60793  -0.20223 
 H                    -4.56051  -3.70202  -0.27368 
 C                    -6.51247  -1.92581   0.45828 
 H                    -6.7957   -1.5583   -0.55126 
 H                    -6.81686  -2.99114   0.526 
 H                    -7.11429  -1.36602   1.20507 
 C                     1.48488   3.25755  -0.63959 
 C                     1.46862   4.48448   0.07924 
 C                     2.69827   2.93976  -1.32101 
 C                     2.57601   5.34421   0.13545 
 H                     0.54885   4.77197   0.61551 
 C                     3.80823   3.78617  -1.2738 
 H                     2.77346   2.01748  -1.91264 
 C                     3.76599   4.99855  -0.54381 
 H                     2.50136   6.27941   0.70864 
 H                     4.73646   3.53025  -1.8082 
 C                     4.9083    6.98745   0.14897 
 H                     4.14165   7.69337  -0.24251 
 H                     4.73591   6.83864   1.23868 
 H                     5.91202   7.42822   0.00067 
 O                     4.90278   5.75442  -0.56072 
 H                     1.94255   0.05244  -1.28505 
 C                    -2.85058   1.28466  -2.35768 
 C                    -3.97164   0.53131  -2.78302 
 C                    -3.01778   2.6817   -2.18174 
 C                    -5.21415   1.14963  -3.01438 
 H                    -3.86589  -0.54871  -2.96602 
 C                    -4.26242   3.29494  -2.39389 
 H                    -2.15202   3.29088  -1.87888 
 C                    -5.36983   2.53218  -2.81253 
 H                    -6.06562   0.54232  -3.36165 
 H                    -4.36631   4.38168  -2.24335 
 H                    -6.34327   3.01528  -2.99243 
 

 GradGradGradGradGradGradGradGradGradGradGradGradGradGradGradGradGradGrad
 Berny optimization.
 Initialization pass.
                           ----------------------------
                           !    Initial Parameters    !
                           ! (Angstroms and Degrees)  !
 --------------------------                            --------------------------
 ! Name  Definition              Value          Derivative Info.                !
 --------------------------------------------------------------------------------
 ! R1    R(1,2)                  1.3954         calculate D2E/DX2 analytically  !
 ! R2    R(1,5)                  1.4132         calculate D2E/DX2 analytically  !
 ! R3    R(1,7)                  1.0995         calculate D2E/DX2 analytically  !
 ! R4    R(2,3)                  1.4263         calculate D2E/DX2 analytically  !
 ! R5    R(2,8)                  1.1008         calculate D2E/DX2 analytically  !
 ! R6    R(3,4)                  1.4455         calculate D2E/DX2 analytically  !
 ! R7    R(3,9)                  1.4277         calculate D2E/DX2 analytically  !
 ! R8    R(4,13)                 1.3608         calculate D2E/DX2 analytically  !
 ! R9    R(4,14)                 1.3571         calculate D2E/DX2 analytically  !
 ! R10   R(5,14)                 1.3674         calculate D2E/DX2 analytically  !
 ! R11   R(5,15)                 1.4535         calculate D2E/DX2 analytically  !
 ! R12   R(6,9)                  1.1007         calculate D2E/DX2 analytically  !
 ! R13   R(9,11)                 1.3961         calculate D2E/DX2 analytically  !
 ! R14   R(10,11)                1.413          calculate D2E/DX2 analytically  !
 ! R15   R(10,13)                1.369          calculate D2E/DX2 analytically  !
 ! R16   R(10,16)                1.4501         calculate D2E/DX2 analytically  !
 ! R17   R(11,12)                1.0997         calculate D2E/DX2 analytically  !
 ! R18   R(13,19)                1.9372         calculate D2E/DX2 analytically  !
 ! R19   R(14,43)                2.0009         calculate D2E/DX2 analytically  !
 ! R20   R(15,17)                1.3098         calculate D2E/DX2 analytically  !
 ! R21   R(15,41)                1.3493         calculate D2E/DX2 analytically  !
 ! R22   R(16,18)                1.3134         calculate D2E/DX2 analytically  !
 ! R23   R(16,42)                1.3509         calculate D2E/DX2 analytically  !
 ! R24   R(17,37)                1.4829         calculate D2E/DX2 analytically  !
 ! R25   R(17,43)                2.0991         calculate D2E/DX2 analytically  !
 ! R26   R(18,19)                2.1194         calculate D2E/DX2 analytically  !
 ! R27   R(18,39)                1.4809         calculate D2E/DX2 analytically  !
 ! R28   R(19,20)                1.9956         calculate D2E/DX2 analytically  !
 ! R29   R(19,22)                2.0469         calculate D2E/DX2 analytically  !
 ! R30   R(19,24)                2.1607         calculate D2E/DX2 analytically  !
 ! R31   R(19,43)                2.7391         calculate D2E/DX2 analytically  !
 ! R32   R(20,21)                1.3718         calculate D2E/DX2 analytically  !
 ! R33   R(20,28)                1.5208         calculate D2E/DX2 analytically  !
 ! R34   R(21,30)                1.106          calculate D2E/DX2 analytically  !
 ! R35   R(21,71)                1.465          calculate D2E/DX2 analytically  !
 ! R36   R(22,23)                1.1001         calculate D2E/DX2 analytically  !
 ! R37   R(22,24)                1.4728         calculate D2E/DX2 analytically  !
 ! R38   R(22,26)                1.4293         calculate D2E/DX2 analytically  !
 ! R39   R(24,25)                1.111          calculate D2E/DX2 analytically  !
 ! R40   R(24,87)                1.4973         calculate D2E/DX2 analytically  !
 ! R41   R(26,27)                1.1042         calculate D2E/DX2 analytically  !
 ! R42   R(26,28)                1.5304         calculate D2E/DX2 analytically  !
 ! R43   R(26,43)                2.1969         calculate D2E/DX2 analytically  !
 ! R44   R(28,29)                1.1226         calculate D2E/DX2 analytically  !
 ! R45   R(28,86)                1.1096         calculate D2E/DX2 analytically  !
 ! R46   R(31,32)                1.1102         calculate D2E/DX2 analytically  !
 ! R47   R(31,33)                1.1065         calculate D2E/DX2 analytically  !
 ! R48   R(31,39)                1.5544         calculate D2E/DX2 analytically  !
 ! R49   R(31,42)                1.4608         calculate D2E/DX2 analytically  !
 ! R50   R(34,35)                1.1098         calculate D2E/DX2 analytically  !
 ! R51   R(34,36)                1.1064         calculate D2E/DX2 analytically  !
 ! R52   R(34,37)                1.5586         calculate D2E/DX2 analytically  !
 ! R53   R(34,41)                1.46           calculate D2E/DX2 analytically  !
 ! R54   R(37,38)                1.1112         calculate D2E/DX2 analytically  !
 ! R55   R(37,45)                1.5687         calculate D2E/DX2 analytically  !
 ! R56   R(39,40)                1.1092         calculate D2E/DX2 analytically  !
 ! R57   R(39,58)                1.572          calculate D2E/DX2 analytically  !
 ! R58   R(43,44)                2.2827         calculate D2E/DX2 analytically  !
 ! R59   R(45,46)                1.5432         calculate D2E/DX2 analytically  !
 ! R60   R(45,50)                1.5463         calculate D2E/DX2 analytically  !
 ! R61   R(45,54)                1.5413         calculate D2E/DX2 analytically  !
 ! R62   R(46,47)                1.11           calculate D2E/DX2 analytically  !
 ! R63   R(46,48)                1.1103         calculate D2E/DX2 analytically  !
 ! R64   R(46,49)                1.1101         calculate D2E/DX2 analytically  !
 ! R65   R(50,51)                1.1108         calculate D2E/DX2 analytically  !
 ! R66   R(50,52)                1.1099         calculate D2E/DX2 analytically  !
 ! R67   R(50,53)                1.1103         calculate D2E/DX2 analytically  !
 ! R68   R(54,55)                1.1064         calculate D2E/DX2 analytically  !
 ! R69   R(54,56)                1.1103         calculate D2E/DX2 analytically  !
 ! R70   R(54,57)                1.1099         calculate D2E/DX2 analytically  !
 ! R71   R(58,59)                1.5434         calculate D2E/DX2 analytically  !
 ! R72   R(58,63)                1.5429         calculate D2E/DX2 analytically  !
 ! R73   R(58,67)                1.5457         calculate D2E/DX2 analytically  !
 ! R74   R(59,60)                1.1094         calculate D2E/DX2 analytically  !
 ! R75   R(59,61)                1.1105         calculate D2E/DX2 analytically  !
 ! R76   R(59,62)                1.1101         calculate D2E/DX2 analytically  !
 ! R77   R(63,64)                1.1106         calculate D2E/DX2 analytically  !
 ! R78   R(63,65)                1.1086         calculate D2E/DX2 analytically  !
 ! R79   R(63,66)                1.1104         calculate D2E/DX2 analytically  !
 ! R80   R(67,68)                1.1111         calculate D2E/DX2 analytically  !
 ! R81   R(67,69)                1.11           calculate D2E/DX2 analytically  !
 ! R82   R(67,70)                1.1105         calculate D2E/DX2 analytically  !
 ! R83   R(71,72)                1.4221         calculate D2E/DX2 analytically  !
 ! R84   R(71,73)                1.4275         calculate D2E/DX2 analytically  !
 ! R85   R(72,74)                1.4031         calculate D2E/DX2 analytically  !
 ! R86   R(72,75)                1.1028         calculate D2E/DX2 analytically  !
 ! R87   R(73,76)                1.3967         calculate D2E/DX2 analytically  !
 ! R88   R(73,77)                1.0983         calculate D2E/DX2 analytically  !
 ! R89   R(74,78)                1.4131         calculate D2E/DX2 analytically  !
 ! R90   R(74,79)                1.0994         calculate D2E/DX2 analytically  !
 ! R91   R(76,78)                1.4158         calculate D2E/DX2 analytically  !
 ! R92   R(76,80)                1.1012         calculate D2E/DX2 analytically  !
 ! R93   R(78,85)                1.3653         calculate D2E/DX2 analytically  !
 ! R94   R(81,82)                1.1132         calculate D2E/DX2 analytically  !
 ! R95   R(81,83)                1.1133         calculate D2E/DX2 analytically  !
 ! R96   R(81,84)                1.1062         calculate D2E/DX2 analytically  !
 ! R97   R(81,85)                1.4227         calculate D2E/DX2 analytically  !
 ! R98   R(87,88)                1.4161         calculate D2E/DX2 analytically  !
 ! R99   R(87,89)                1.418          calculate D2E/DX2 analytically  !
 ! R100  R(88,90)                1.407          calculate D2E/DX2 analytically  !
 ! R101  R(88,91)                1.1005         calculate D2E/DX2 analytically  !
 ! R102  R(89,92)                1.4036         calculate D2E/DX2 analytically  !
 ! R103  R(89,93)                1.1011         calculate D2E/DX2 analytically  !
 ! R104  R(90,94)                1.4059         calculate D2E/DX2 analytically  !
 ! R105  R(90,95)                1.102          calculate D2E/DX2 analytically  !
 ! R106  R(92,94)                1.4083         calculate D2E/DX2 analytically  !
 ! R107  R(92,96)                1.102          calculate D2E/DX2 analytically  !
 ! R108  R(94,97)                1.1015         calculate D2E/DX2 analytically  !
 ! A1    A(2,1,5)              119.0738         calculate D2E/DX2 analytically  !
 ! A2    A(2,1,7)              121.4355         calculate D2E/DX2 analytically  !
 ! A3    A(5,1,7)              119.4316         calculate D2E/DX2 analytically  !
 ! A4    A(1,2,3)              119.6968         calculate D2E/DX2 analytically  !
 ! A5    A(1,2,8)              120.7104         calculate D2E/DX2 analytically  !
 ! A6    A(3,2,8)              119.5541         calculate D2E/DX2 analytically  !
 ! A7    A(2,3,4)              117.2195         calculate D2E/DX2 analytically  !
 ! A8    A(2,3,9)              125.3165         calculate D2E/DX2 analytically  !
 ! A9    A(4,3,9)              117.429          calculate D2E/DX2 analytically  !
 ! A10   A(3,4,13)             121.7091         calculate D2E/DX2 analytically  !
 ! A11   A(3,4,14)             122.2546         calculate D2E/DX2 analytically  !
 ! A12   A(13,4,14)            115.9359         calculate D2E/DX2 analytically  !
 ! A13   A(1,5,14)             122.5286         calculate D2E/DX2 analytically  !
 ! A14   A(1,5,15)             125.4279         calculate D2E/DX2 analytically  !
 ! A15   A(14,5,15)            111.6352         calculate D2E/DX2 analytically  !
 ! A16   A(3,9,6)              119.4798         calculate D2E/DX2 analytically  !
 ! A17   A(3,9,11)             119.6623         calculate D2E/DX2 analytically  !
 ! A18   A(6,9,11)             120.7804         calculate D2E/DX2 analytically  !
 ! A19   A(11,10,13)           122.2329         calculate D2E/DX2 analytically  !
 ! A20   A(11,10,16)           126.8738         calculate D2E/DX2 analytically  !
 ! A21   A(13,10,16)           110.8271         calculate D2E/DX2 analytically  !
 ! A22   A(9,11,10)            119.0825         calculate D2E/DX2 analytically  !
 ! A23   A(9,11,12)            121.4737         calculate D2E/DX2 analytically  !
 ! A24   A(10,11,12)           119.4429         calculate D2E/DX2 analytically  !
 ! A25   A(4,13,10)            118.7634         calculate D2E/DX2 analytically  !
 ! A26   A(4,13,19)            125.2955         calculate D2E/DX2 analytically  !
 ! A27   A(10,13,19)           115.6133         calculate D2E/DX2 analytically  !
 ! A28   A(4,14,5)             118.8227         calculate D2E/DX2 analytically  !
 ! A29   A(4,14,43)            123.1512         calculate D2E/DX2 analytically  !
 ! A30   A(5,14,43)            116.6035         calculate D2E/DX2 analytically  !
 ! A31   A(5,15,17)            120.8645         calculate D2E/DX2 analytically  !
 ! A32   A(5,15,41)            120.9559         calculate D2E/DX2 analytically  !
 ! A33   A(17,15,41)           117.8986         calculate D2E/DX2 analytically  !
 ! A34   A(10,16,18)           120.3151         calculate D2E/DX2 analytically  !
 ! A35   A(10,16,42)           121.5541         calculate D2E/DX2 analytically  !
 ! A36   A(18,16,42)           118.0639         calculate D2E/DX2 analytically  !
 ! A37   A(15,17,37)           107.2869         calculate D2E/DX2 analytically  !
 ! A38   A(15,17,43)           110.3994         calculate D2E/DX2 analytically  !
 ! A39   A(37,17,43)           140.5979         calculate D2E/DX2 analytically  !
 ! A40   A(16,18,19)           106.9219         calculate D2E/DX2 analytically  !
 ! A41   A(16,18,39)           106.4656         calculate D2E/DX2 analytically  !
 ! A42   A(19,18,39)           145.6921         calculate D2E/DX2 analytically  !
 ! A43   A(13,19,18)            79.7253         calculate D2E/DX2 analytically  !
 ! A44   A(13,19,20)            98.7033         calculate D2E/DX2 analytically  !
 ! A45   A(13,19,22)           160.6148         calculate D2E/DX2 analytically  !
 ! A46   A(13,19,24)           149.7402         calculate D2E/DX2 analytically  !
 ! A47   A(13,19,43)            81.0486         calculate D2E/DX2 analytically  !
 ! A48   A(18,19,20)           142.0108         calculate D2E/DX2 analytically  !
 ! A49   A(18,19,22)           114.9626         calculate D2E/DX2 analytically  !
 ! A50   A(18,19,24)           108.1558         calculate D2E/DX2 analytically  !
 ! A51   A(18,19,43)           127.1732         calculate D2E/DX2 analytically  !
 ! A52   A(20,19,22)            77.6631         calculate D2E/DX2 analytically  !
 ! A53   A(20,19,24)            56.7289         calculate D2E/DX2 analytically  !
 ! A54   A(20,19,43)            89.3464         calculate D2E/DX2 analytically  !
 ! A55   A(22,19,43)            79.8818         calculate D2E/DX2 analytically  !
 ! A56   A(24,19,43)           112.965          calculate D2E/DX2 analytically  !
 ! A57   A(19,20,21)           119.8937         calculate D2E/DX2 analytically  !
 ! A58   A(19,20,28)           103.8198         calculate D2E/DX2 analytically  !
 ! A59   A(21,20,28)           130.9185         calculate D2E/DX2 analytically  !
 ! A60   A(20,21,30)           116.0682         calculate D2E/DX2 analytically  !
 ! A61   A(20,21,71)           130.3459         calculate D2E/DX2 analytically  !
 ! A62   A(30,21,71)           113.56           calculate D2E/DX2 analytically  !
 ! A63   A(19,22,23)           115.084          calculate D2E/DX2 analytically  !
 ! A64   A(19,22,26)            87.1098         calculate D2E/DX2 analytically  !
 ! A65   A(23,22,24)           124.4626         calculate D2E/DX2 analytically  !
 ! A66   A(23,22,26)           121.8729         calculate D2E/DX2 analytically  !
 ! A67   A(24,22,26)           113.0101         calculate D2E/DX2 analytically  !
 ! A68   A(19,24,25)           135.7967         calculate D2E/DX2 analytically  !
 ! A69   A(19,24,87)           107.4751         calculate D2E/DX2 analytically  !
 ! A70   A(22,24,25)           113.1586         calculate D2E/DX2 analytically  !
 ! A71   A(22,24,87)           124.5977         calculate D2E/DX2 analytically  !
 ! A72   A(25,24,87)           107.4091         calculate D2E/DX2 analytically  !
 ! A73   A(22,26,27)           119.2103         calculate D2E/DX2 analytically  !
 ! A74   A(22,26,28)           111.2925         calculate D2E/DX2 analytically  !
 ! A75   A(22,26,43)           117.0242         calculate D2E/DX2 analytically  !
 ! A76   A(27,26,28)           122.2433         calculate D2E/DX2 analytically  !
 ! A77   A(27,26,43)            82.5757         calculate D2E/DX2 analytically  !
 ! A78   A(28,26,43)            98.5832         calculate D2E/DX2 analytically  !
 ! A79   A(20,28,26)           102.2771         calculate D2E/DX2 analytically  !
 ! A80   A(20,28,29)           112.2563         calculate D2E/DX2 analytically  !
 ! A81   A(20,28,86)           111.6311         calculate D2E/DX2 analytically  !
 ! A82   A(26,28,29)           111.8478         calculate D2E/DX2 analytically  !
 ! A83   A(26,28,86)           112.138          calculate D2E/DX2 analytically  !
 ! A84   A(29,28,86)           106.8007         calculate D2E/DX2 analytically  !
 ! A85   A(32,31,33)           109.0619         calculate D2E/DX2 analytically  !
 ! A86   A(32,31,39)           112.5329         calculate D2E/DX2 analytically  !
 ! A87   A(32,31,42)           107.7712         calculate D2E/DX2 analytically  !
 ! A88   A(33,31,39)           114.8486         calculate D2E/DX2 analytically  !
 ! A89   A(33,31,42)           107.7476         calculate D2E/DX2 analytically  !
 ! A90   A(39,31,42)           104.4569         calculate D2E/DX2 analytically  !
 ! A91   A(35,34,36)           108.9852         calculate D2E/DX2 analytically  !
 ! A92   A(35,34,37)           112.7612         calculate D2E/DX2 analytically  !
 ! A93   A(35,34,41)           107.5623         calculate D2E/DX2 analytically  !
 ! A94   A(36,34,37)           114.5404         calculate D2E/DX2 analytically  !
 ! A95   A(36,34,41)           107.7692         calculate D2E/DX2 analytically  !
 ! A96   A(37,34,41)           104.8095         calculate D2E/DX2 analytically  !
 ! A97   A(17,37,34)           102.3315         calculate D2E/DX2 analytically  !
 ! A98   A(17,37,38)           107.6803         calculate D2E/DX2 analytically  !
 ! A99   A(17,37,45)           114.693          calculate D2E/DX2 analytically  !
 ! A100  A(34,37,38)           110.6103         calculate D2E/DX2 analytically  !
 ! A101  A(34,37,45)           114.2784         calculate D2E/DX2 analytically  !
 ! A102  A(38,37,45)           107.0864         calculate D2E/DX2 analytically  !
 ! A103  A(18,39,31)           102.4587         calculate D2E/DX2 analytically  !
 ! A104  A(18,39,40)           108.9416         calculate D2E/DX2 analytically  !
 ! A105  A(18,39,58)           112.6519         calculate D2E/DX2 analytically  !
 ! A106  A(31,39,40)           110.3685         calculate D2E/DX2 analytically  !
 ! A107  A(31,39,58)           114.9467         calculate D2E/DX2 analytically  !
 ! A108  A(40,39,58)           107.3563         calculate D2E/DX2 analytically  !
 ! A109  A(15,41,34)           105.3431         calculate D2E/DX2 analytically  !
 ! A110  A(16,42,31)           105.1084         calculate D2E/DX2 analytically  !
 ! A111  A(14,43,17)            79.9172         calculate D2E/DX2 analytically  !
 ! A112  A(14,43,19)            81.4322         calculate D2E/DX2 analytically  !
 ! A113  A(14,43,26)           116.7338         calculate D2E/DX2 analytically  !
 ! A114  A(14,43,44)           140.7182         calculate D2E/DX2 analytically  !
 ! A115  A(17,43,19)           152.6262         calculate D2E/DX2 analytically  !
 ! A116  A(17,43,26)           114.5345         calculate D2E/DX2 analytically  !
 ! A117  A(17,43,44)           101.756          calculate D2E/DX2 analytically  !
 ! A118  A(19,43,26)            57.9224         calculate D2E/DX2 analytically  !
 ! A119  A(19,43,44)           105.3742         calculate D2E/DX2 analytically  !
 ! A120  A(26,43,44)            98.4759         calculate D2E/DX2 analytically  !
 ! A121  A(37,45,46)           111.2121         calculate D2E/DX2 analytically  !
 ! A122  A(37,45,50)           107.934          calculate D2E/DX2 analytically  !
 ! A123  A(37,45,54)           109.5646         calculate D2E/DX2 analytically  !
 ! A124  A(46,45,50)           110.1808         calculate D2E/DX2 analytically  !
 ! A125  A(46,45,54)           109.4072         calculate D2E/DX2 analytically  !
 ! A126  A(50,45,54)           108.4888         calculate D2E/DX2 analytically  !
 ! A127  A(45,46,47)           111.1834         calculate D2E/DX2 analytically  !
 ! A128  A(45,46,48)           112.4947         calculate D2E/DX2 analytically  !
 ! A129  A(45,46,49)           110.2781         calculate D2E/DX2 analytically  !
 ! A130  A(47,46,48)           107.9956         calculate D2E/DX2 analytically  !
 ! A131  A(47,46,49)           107.5766         calculate D2E/DX2 analytically  !
 ! A132  A(48,46,49)           107.0987         calculate D2E/DX2 analytically  !
 ! A133  A(45,50,51)           111.212          calculate D2E/DX2 analytically  !
 ! A134  A(45,50,52)           110.1282         calculate D2E/DX2 analytically  !
 ! A135  A(45,50,53)           112.6166         calculate D2E/DX2 analytically  !
 ! A136  A(51,50,52)           107.6592         calculate D2E/DX2 analytically  !
 ! A137  A(51,50,53)           107.8875         calculate D2E/DX2 analytically  !
 ! A138  A(52,50,53)           107.1237         calculate D2E/DX2 analytically  !
 ! A139  A(45,54,55)           111.0146         calculate D2E/DX2 analytically  !
 ! A140  A(45,54,56)           110.3354         calculate D2E/DX2 analytically  !
 ! A141  A(45,54,57)           111.6421         calculate D2E/DX2 analytically  !
 ! A142  A(55,54,56)           107.6942         calculate D2E/DX2 analytically  !
 ! A143  A(55,54,57)           107.9711         calculate D2E/DX2 analytically  !
 ! A144  A(56,54,57)           108.0378         calculate D2E/DX2 analytically  !
 ! A145  A(39,58,59)           111.2887         calculate D2E/DX2 analytically  !
 ! A146  A(39,58,63)           109.4796         calculate D2E/DX2 analytically  !
 ! A147  A(39,58,67)           108.0132         calculate D2E/DX2 analytically  !
 ! A148  A(59,58,63)           109.1708         calculate D2E/DX2 analytically  !
 ! A149  A(59,58,67)           110.0401         calculate D2E/DX2 analytically  !
 ! A150  A(63,58,67)           108.8064         calculate D2E/DX2 analytically  !
 ! A151  A(58,59,60)           111.1237         calculate D2E/DX2 analytically  !
 ! A152  A(58,59,61)           112.4491         calculate D2E/DX2 analytically  !
 ! A153  A(58,59,62)           110.1497         calculate D2E/DX2 analytically  !
 ! A154  A(60,59,61)           108.3259         calculate D2E/DX2 analytically  !
 ! A155  A(60,59,62)           107.3716         calculate D2E/DX2 analytically  !
 ! A156  A(61,59,62)           107.2115         calculate D2E/DX2 analytically  !
 ! A157  A(58,63,64)           111.1955         calculate D2E/DX2 analytically  !
 ! A158  A(58,63,65)           112.0193         calculate D2E/DX2 analytically  !
 ! A159  A(58,63,66)           110.0644         calculate D2E/DX2 analytically  !
 ! A160  A(64,63,65)           108.4169         calculate D2E/DX2 analytically  !
 ! A161  A(64,63,66)           107.4001         calculate D2E/DX2 analytically  !
 ! A162  A(65,63,66)           107.5654         calculate D2E/DX2 analytically  !
 ! A163  A(58,67,68)           111.3383         calculate D2E/DX2 analytically  !
 ! A164  A(58,67,69)           110.1462         calculate D2E/DX2 analytically  !
 ! A165  A(58,67,70)           112.567          calculate D2E/DX2 analytically  !
 ! A166  A(68,67,69)           107.6368         calculate D2E/DX2 analytically  !
 ! A167  A(68,67,70)           107.8264         calculate D2E/DX2 analytically  !
 ! A168  A(69,67,70)           107.1068         calculate D2E/DX2 analytically  !
 ! A169  A(21,71,72)           118.5207         calculate D2E/DX2 analytically  !
 ! A170  A(21,71,73)           125.1755         calculate D2E/DX2 analytically  !
 ! A171  A(72,71,73)           116.3014         calculate D2E/DX2 analytically  !
 ! A172  A(71,72,74)           122.6758         calculate D2E/DX2 analytically  !
 ! A173  A(71,72,75)           118.7014         calculate D2E/DX2 analytically  !
 ! A174  A(74,72,75)           118.6228         calculate D2E/DX2 analytically  !
 ! A175  A(71,73,76)           121.6339         calculate D2E/DX2 analytically  !
 ! A176  A(71,73,77)           120.1517         calculate D2E/DX2 analytically  !
 ! A177  A(76,73,77)           118.2093         calculate D2E/DX2 analytically  !
 ! A178  A(72,74,78)           119.7021         calculate D2E/DX2 analytically  !
 ! A179  A(72,74,79)           119.243          calculate D2E/DX2 analytically  !
 ! A180  A(78,74,79)           121.0548         calculate D2E/DX2 analytically  !
 ! A181  A(73,76,78)           120.8415         calculate D2E/DX2 analytically  !
 ! A182  A(73,76,80)           120.84           calculate D2E/DX2 analytically  !
 ! A183  A(78,76,80)           118.3175         calculate D2E/DX2 analytically  !
 ! A184  A(74,78,76)           118.8435         calculate D2E/DX2 analytically  !
 ! A185  A(74,78,85)           124.8689         calculate D2E/DX2 analytically  !
 ! A186  A(76,78,85)           116.287          calculate D2E/DX2 analytically  !
 ! A187  A(82,81,83)           108.8047         calculate D2E/DX2 analytically  !
 ! A188  A(82,81,84)           108.9687         calculate D2E/DX2 analytically  !
 ! A189  A(82,81,85)           111.8072         calculate D2E/DX2 analytically  !
 ! A190  A(83,81,84)           108.965          calculate D2E/DX2 analytically  !
 ! A191  A(83,81,85)           111.8283         calculate D2E/DX2 analytically  !
 ! A192  A(84,81,85)           106.3779         calculate D2E/DX2 analytically  !
 ! A193  A(78,85,81)           118.4826         calculate D2E/DX2 analytically  !
 ! A194  A(24,87,88)           121.7183         calculate D2E/DX2 analytically  !
 ! A195  A(24,87,89)           119.9651         calculate D2E/DX2 analytically  !
 ! A196  A(88,87,89)           117.9093         calculate D2E/DX2 analytically  !
 ! A197  A(87,88,90)           120.9786         calculate D2E/DX2 analytically  !
 ! A198  A(87,88,91)           119.7339         calculate D2E/DX2 analytically  !
 ! A199  A(90,88,91)           119.261          calculate D2E/DX2 analytically  !
 ! A200  A(87,89,92)           121.0809         calculate D2E/DX2 analytically  !
 ! A201  A(87,89,93)           119.1113         calculate D2E/DX2 analytically  !
 ! A202  A(92,89,93)           119.8071         calculate D2E/DX2 analytically  !
 ! A203  A(88,90,94)           120.4207         calculate D2E/DX2 analytically  !
 ! A204  A(88,90,95)           119.4695         calculate D2E/DX2 analytically  !
 ! A205  A(94,90,95)           120.1088         calculate D2E/DX2 analytically  !
 ! A206  A(89,92,94)           120.3684         calculate D2E/DX2 analytically  !
 ! A207  A(89,92,96)           119.5893         calculate D2E/DX2 analytically  !
 ! A208  A(94,92,96)           120.0377         calculate D2E/DX2 analytically  !
 ! A209  A(90,94,92)           119.2246         calculate D2E/DX2 analytically  !
 ! A210  A(90,94,97)           120.3786         calculate D2E/DX2 analytically  !
 ! A211  A(92,94,97)           120.392          calculate D2E/DX2 analytically  !
 ! D1    D(5,1,2,3)             -0.1289         calculate D2E/DX2 analytically  !
 ! D2    D(5,1,2,8)            177.5987         calculate D2E/DX2 analytically  !
 ! D3    D(7,1,2,3)           -177.3171         calculate D2E/DX2 analytically  !
 ! D4    D(7,1,2,8)              0.4105         calculate D2E/DX2 analytically  !
 ! D5    D(2,1,5,14)             4.166          calculate D2E/DX2 analytically  !
 ! D6    D(2,1,5,15)          -167.878          calculate D2E/DX2 analytically  !
 ! D7    D(7,1,5,14)          -178.5886         calculate D2E/DX2 analytically  !
 ! D8    D(7,1,5,15)             9.3674         calculate D2E/DX2 analytically  !
 ! D9    D(1,2,3,4)             -5.1364         calculate D2E/DX2 analytically  !
 ! D10   D(1,2,3,9)            172.6482         calculate D2E/DX2 analytically  !
 ! D11   D(8,2,3,4)            177.1095         calculate D2E/DX2 analytically  !
 ! D12   D(8,2,3,9)             -5.1059         calculate D2E/DX2 analytically  !
 ! D13   D(2,3,4,13)          -176.7021         calculate D2E/DX2 analytically  !
 ! D14   D(2,3,4,14)             7.0911         calculate D2E/DX2 analytically  !
 ! D15   D(9,3,4,13)             5.3345         calculate D2E/DX2 analytically  !
 ! D16   D(9,3,4,14)          -170.8723         calculate D2E/DX2 analytically  !
 ! D17   D(2,3,9,6)              2.2521         calculate D2E/DX2 analytically  !
 ! D18   D(2,3,9,11)          -174.5727         calculate D2E/DX2 analytically  !
 ! D19   D(4,3,9,6)           -179.9675         calculate D2E/DX2 analytically  !
 ! D20   D(4,3,9,11)             3.2077         calculate D2E/DX2 analytically  !
 ! D21   D(3,4,13,10)          -12.1264         calculate D2E/DX2 analytically  !
 ! D22   D(3,4,13,19)          160.993          calculate D2E/DX2 analytically  !
 ! D23   D(14,4,13,10)         164.3068         calculate D2E/DX2 analytically  !
 ! D24   D(14,4,13,19)         -22.5738         calculate D2E/DX2 analytically  !
 ! D25   D(3,4,14,5)            -3.3666         calculate D2E/DX2 analytically  !
 ! D26   D(3,4,14,43)          162.5465         calculate D2E/DX2 analytically  !
 ! D27   D(13,4,14,5)         -179.7785         calculate D2E/DX2 analytically  !
 ! D28   D(13,4,14,43)         -13.8654         calculate D2E/DX2 analytically  !
 ! D29   D(1,5,14,4)            -2.3993         calculate D2E/DX2 analytically  !
 ! D30   D(1,5,14,43)         -169.2254         calculate D2E/DX2 analytically  !
 ! D31   D(15,5,14,4)          170.6318         calculate D2E/DX2 analytically  !
 ! D32   D(15,5,14,43)           3.8056         calculate D2E/DX2 analytically  !
 ! D33   D(1,5,15,17)          175.3567         calculate D2E/DX2 analytically  !
 ! D34   D(1,5,15,41)            1.574          calculate D2E/DX2 analytically  !
 ! D35   D(14,5,15,17)           2.5688         calculate D2E/DX2 analytically  !
 ! D36   D(14,5,15,41)        -171.214          calculate D2E/DX2 analytically  !
 ! D37   D(3,9,11,10)           -4.7182         calculate D2E/DX2 analytically  !
 ! D38   D(3,9,11,12)          174.9211         calculate D2E/DX2 analytically  !
 ! D39   D(6,9,11,10)          178.4991         calculate D2E/DX2 analytically  !
 ! D40   D(6,9,11,12)           -1.8615         calculate D2E/DX2 analytically  !
 ! D41   D(13,10,11,9)          -2.1929         calculate D2E/DX2 analytically  !
 ! D42   D(13,10,11,12)        178.1603         calculate D2E/DX2 analytically  !
 ! D43   D(16,10,11,9)         174.5698         calculate D2E/DX2 analytically  !
 ! D44   D(16,10,11,12)         -5.077          calculate D2E/DX2 analytically  !
 ! D45   D(11,10,13,4)          10.6193         calculate D2E/DX2 analytically  !
 ! D46   D(11,10,13,19)       -163.1556         calculate D2E/DX2 analytically  !
 ! D47   D(16,10,13,4)        -166.6103         calculate D2E/DX2 analytically  !
 ! D48   D(16,10,13,19)         19.6148         calculate D2E/DX2 analytically  !
 ! D49   D(11,10,16,18)       -176.6896         calculate D2E/DX2 analytically  !
 ! D50   D(11,10,16,42)          0.2793         calculate D2E/DX2 analytically  !
 ! D51   D(13,10,16,18)          0.3808         calculate D2E/DX2 analytically  !
 ! D52   D(13,10,16,42)        177.3498         calculate D2E/DX2 analytically  !
 ! D53   D(4,13,19,18)         163.9695         calculate D2E/DX2 analytically  !
 ! D54   D(4,13,19,20)         -54.5357         calculate D2E/DX2 analytically  !
 ! D55   D(4,13,19,22)          22.981          calculate D2E/DX2 analytically  !
 ! D56   D(4,13,19,24)         -87.5057         calculate D2E/DX2 analytically  !
 ! D57   D(4,13,19,43)          33.4129         calculate D2E/DX2 analytically  !
 ! D58   D(10,13,19,18)        -22.7185         calculate D2E/DX2 analytically  !
 ! D59   D(10,13,19,20)        118.7763         calculate D2E/DX2 analytically  !
 ! D60   D(10,13,19,22)       -163.707          calculate D2E/DX2 analytically  !
 ! D61   D(10,13,19,24)         85.8063         calculate D2E/DX2 analytically  !
 ! D62   D(10,13,19,43)       -153.2751         calculate D2E/DX2 analytically  !
 ! D63   D(4,14,43,17)        -172.0037         calculate D2E/DX2 analytically  !
 ! D64   D(4,14,43,19)          28.1245         calculate D2E/DX2 analytically  !
 ! D65   D(4,14,43,26)          75.4972         calculate D2E/DX2 analytically  !
 ! D66   D(4,14,43,44)         -75.7196         calculate D2E/DX2 analytically  !
 ! D67   D(5,14,43,17)          -5.8012         calculate D2E/DX2 analytically  !
 ! D68   D(5,14,43,19)        -165.673          calculate D2E/DX2 analytically  !
 ! D69   D(5,14,43,26)        -118.3003         calculate D2E/DX2 analytically  !
 ! D70   D(5,14,43,44)          90.4829         calculate D2E/DX2 analytically  !
 ! D71   D(5,15,17,37)        -175.357          calculate D2E/DX2 analytically  !
 ! D72   D(5,15,17,43)          -7.0775         calculate D2E/DX2 analytically  !
 ! D73   D(41,15,17,37)         -1.3892         calculate D2E/DX2 analytically  !
 ! D74   D(41,15,17,43)        166.8903         calculate D2E/DX2 analytically  !
 ! D75   D(5,15,41,34)         165.26           calculate D2E/DX2 analytically  !
 ! D76   D(17,15,41,34)         -8.702          calculate D2E/DX2 analytically  !
 ! D77   D(10,16,18,19)        -17.3302         calculate D2E/DX2 analytically  !
 ! D78   D(10,16,18,39)        170.6783         calculate D2E/DX2 analytically  !
 ! D79   D(42,16,18,19)        165.5968         calculate D2E/DX2 analytically  !
 ! D80   D(42,16,18,39)         -6.3947         calculate D2E/DX2 analytically  !
 ! D81   D(10,16,42,31)        176.797          calculate D2E/DX2 analytically  !
 ! D82   D(18,16,42,31)         -6.1682         calculate D2E/DX2 analytically  !
 ! D83   D(15,17,37,34)         10.0584         calculate D2E/DX2 analytically  !
 ! D84   D(15,17,37,38)        126.6655         calculate D2E/DX2 analytically  !
 ! D85   D(15,17,37,45)       -114.2576         calculate D2E/DX2 analytically  !
 ! D86   D(43,17,37,34)       -152.4868         calculate D2E/DX2 analytically  !
 ! D87   D(43,17,37,38)        -35.8797         calculate D2E/DX2 analytically  !
 ! D88   D(43,17,37,45)         83.1972         calculate D2E/DX2 analytically  !
 ! D89   D(15,17,43,14)          6.7274         calculate D2E/DX2 analytically  !
 ! D90   D(15,17,43,19)         54.465          calculate D2E/DX2 analytically  !
 ! D91   D(15,17,43,26)        121.6305         calculate D2E/DX2 analytically  !
 ! D92   D(15,17,43,44)       -133.2706         calculate D2E/DX2 analytically  !
 ! D93   D(37,17,43,14)        168.9351         calculate D2E/DX2 analytically  !
 ! D94   D(37,17,43,19)       -143.3273         calculate D2E/DX2 analytically  !
 ! D95   D(37,17,43,26)        -76.1618         calculate D2E/DX2 analytically  !
 ! D96   D(37,17,43,44)         28.9371         calculate D2E/DX2 analytically  !
 ! D97   D(16,18,19,13)         20.9744         calculate D2E/DX2 analytically  !
 ! D98   D(16,18,19,20)        -70.0418         calculate D2E/DX2 analytically  !
 ! D99   D(16,18,19,22)       -172.35           calculate D2E/DX2 analytically  !
 ! D100  D(16,18,19,24)       -128.8371         calculate D2E/DX2 analytically  !
 ! D101  D(16,18,19,43)         91.3459         calculate D2E/DX2 analytically  !
 ! D102  D(39,18,19,13)       -172.7377         calculate D2E/DX2 analytically  !
 ! D103  D(39,18,19,20)         96.2461         calculate D2E/DX2 analytically  !
 ! D104  D(39,18,19,22)         -6.062          calculate D2E/DX2 analytically  !
 ! D105  D(39,18,19,24)         37.4509         calculate D2E/DX2 analytically  !
 ! D106  D(39,18,19,43)       -102.3661         calculate D2E/DX2 analytically  !
 ! D107  D(16,18,39,31)         15.0548         calculate D2E/DX2 analytically  !
 ! D108  D(16,18,39,40)        131.9706         calculate D2E/DX2 analytically  !
 ! D109  D(16,18,39,58)       -109.0186         calculate D2E/DX2 analytically  !
 ! D110  D(19,18,39,31)       -151.2666         calculate D2E/DX2 analytically  !
 ! D111  D(19,18,39,40)        -34.3507         calculate D2E/DX2 analytically  !
 ! D112  D(19,18,39,58)         84.6601         calculate D2E/DX2 analytically  !
 ! D113  D(13,19,20,21)        -44.9207         calculate D2E/DX2 analytically  !
 ! D114  D(13,19,20,28)        111.9236         calculate D2E/DX2 analytically  !
 ! D115  D(18,19,20,21)         39.5041         calculate D2E/DX2 analytically  !
 ! D116  D(18,19,20,28)       -163.6516         calculate D2E/DX2 analytically  !
 ! D117  D(22,19,20,21)        154.4532         calculate D2E/DX2 analytically  !
 ! D118  D(22,19,20,28)        -48.7025         calculate D2E/DX2 analytically  !
 ! D119  D(24,19,20,21)        115.9321         calculate D2E/DX2 analytically  !
 ! D120  D(24,19,20,28)        -87.2236         calculate D2E/DX2 analytically  !
 ! D121  D(43,19,20,21)       -125.7621         calculate D2E/DX2 analytically  !
 ! D122  D(43,19,20,28)         31.0822         calculate D2E/DX2 analytically  !
 ! D123  D(13,19,22,23)        105.2323         calculate D2E/DX2 analytically  !
 ! D124  D(13,19,22,26)        -18.8327         calculate D2E/DX2 analytically  !
 ! D125  D(18,19,22,23)        -31.6731         calculate D2E/DX2 analytically  !
 ! D126  D(18,19,22,26)       -155.7381         calculate D2E/DX2 analytically  !
 ! D127  D(20,19,22,23)       -173.679          calculate D2E/DX2 analytically  !
 ! D128  D(20,19,22,26)         62.256          calculate D2E/DX2 analytically  !
 ! D129  D(43,19,22,23)         94.7642         calculate D2E/DX2 analytically  !
 ! D130  D(43,19,22,26)        -29.3008         calculate D2E/DX2 analytically  !
 ! D131  D(13,19,24,25)         53.008          calculate D2E/DX2 analytically  !
 ! D132  D(13,19,24,87)        -87.6697         calculate D2E/DX2 analytically  !
 ! D133  D(18,19,24,25)        153.9363         calculate D2E/DX2 analytically  !
 ! D134  D(18,19,24,87)         13.2587         calculate D2E/DX2 analytically  !
 ! D135  D(20,19,24,25)         12.9625         calculate D2E/DX2 analytically  !
 ! D136  D(20,19,24,87)       -127.7152         calculate D2E/DX2 analytically  !
 ! D137  D(43,19,24,25)        -60.0078         calculate D2E/DX2 analytically  !
 ! D138  D(43,19,24,87)        159.3145         calculate D2E/DX2 analytically  !
 ! D139  D(13,19,43,14)        -25.3104         calculate D2E/DX2 analytically  !
 ! D140  D(13,19,43,17)        -72.7755         calculate D2E/DX2 analytically  !
 ! D141  D(13,19,43,26)       -154.4577         calculate D2E/DX2 analytically  !
 ! D142  D(13,19,43,44)        115.0797         calculate D2E/DX2 analytically  !
 ! D143  D(18,19,43,14)        -95.064          calculate D2E/DX2 analytically  !
 ! D144  D(18,19,43,17)       -142.5291         calculate D2E/DX2 analytically  !
 ! D145  D(18,19,43,26)        135.7886         calculate D2E/DX2 analytically  !
 ! D146  D(18,19,43,44)         45.326          calculate D2E/DX2 analytically  !
 ! D147  D(20,19,43,14)         73.6059         calculate D2E/DX2 analytically  !
 ! D148  D(20,19,43,17)         26.1408         calculate D2E/DX2 analytically  !
 ! D149  D(20,19,43,26)        -55.5415         calculate D2E/DX2 analytically  !
 ! D150  D(20,19,43,44)       -146.004          calculate D2E/DX2 analytically  !
 ! D151  D(22,19,43,14)        151.1896         calculate D2E/DX2 analytically  !
 ! D152  D(22,19,43,17)        103.7245         calculate D2E/DX2 analytically  !
 ! D153  D(22,19,43,26)         22.0423         calculate D2E/DX2 analytically  !
 ! D154  D(22,19,43,44)        -68.4203         calculate D2E/DX2 analytically  !
 ! D155  D(24,19,43,14)        126.6861         calculate D2E/DX2 analytically  !
 ! D156  D(24,19,43,17)         79.221          calculate D2E/DX2 analytically  !
 ! D157  D(24,19,43,26)         -2.4613         calculate D2E/DX2 analytically  !
 ! D158  D(24,19,43,44)        -92.9239         calculate D2E/DX2 analytically  !
 ! D159  D(19,20,21,30)        -29.7864         calculate D2E/DX2 analytically  !
 ! D160  D(19,20,21,71)        148.2182         calculate D2E/DX2 analytically  !
 ! D161  D(28,20,21,30)       -179.4332         calculate D2E/DX2 analytically  !
 ! D162  D(28,20,21,71)         -1.4287         calculate D2E/DX2 analytically  !
 ! D163  D(19,20,28,26)         19.898          calculate D2E/DX2 analytically  !
 ! D164  D(19,20,28,29)        139.9355         calculate D2E/DX2 analytically  !
 ! D165  D(19,20,28,86)       -100.1797         calculate D2E/DX2 analytically  !
 ! D166  D(21,20,28,26)        173.0801         calculate D2E/DX2 analytically  !
 ! D167  D(21,20,28,29)        -66.8823         calculate D2E/DX2 analytically  !
 ! D168  D(21,20,28,86)         53.0024         calculate D2E/DX2 analytically  !
 ! D169  D(20,21,71,72)       -172.549          calculate D2E/DX2 analytically  !
 ! D170  D(20,21,71,73)          8.0436         calculate D2E/DX2 analytically  !
 ! D171  D(30,21,71,72)          5.4956         calculate D2E/DX2 analytically  !
 ! D172  D(30,21,71,73)       -173.9118         calculate D2E/DX2 analytically  !
 ! D173  D(23,22,24,25)       -118.9816         calculate D2E/DX2 analytically  !
 ! D174  D(23,22,24,87)         14.6787         calculate D2E/DX2 analytically  !
 ! D175  D(26,22,24,25)         51.8647         calculate D2E/DX2 analytically  !
 ! D176  D(26,22,24,87)       -174.4751         calculate D2E/DX2 analytically  !
 ! D177  D(19,22,26,27)        139.2356         calculate D2E/DX2 analytically  !
 ! D178  D(19,22,26,28)        -69.8455         calculate D2E/DX2 analytically  !
 ! D179  D(19,22,26,43)         42.4015         calculate D2E/DX2 analytically  !
 ! D180  D(23,22,26,27)         21.3011         calculate D2E/DX2 analytically  !
 ! D181  D(23,22,26,28)        172.2201         calculate D2E/DX2 analytically  !
 ! D182  D(23,22,26,43)        -75.533          calculate D2E/DX2 analytically  !
 ! D183  D(24,22,26,27)       -149.8138         calculate D2E/DX2 analytically  !
 ! D184  D(24,22,26,28)          1.1051         calculate D2E/DX2 analytically  !
 ! D185  D(24,22,26,43)        113.3521         calculate D2E/DX2 analytically  !
 ! D186  D(19,24,87,88)        -92.4556         calculate D2E/DX2 analytically  !
 ! D187  D(19,24,87,89)         95.0236         calculate D2E/DX2 analytically  !
 ! D188  D(22,24,87,88)        -20.6802         calculate D2E/DX2 analytically  !
 ! D189  D(22,24,87,89)        166.7989         calculate D2E/DX2 analytically  !
 ! D190  D(25,24,87,88)        115.1264         calculate D2E/DX2 analytically  !
 ! D191  D(25,24,87,89)        -57.3945         calculate D2E/DX2 analytically  !
 ! D192  D(22,26,28,20)         36.4043         calculate D2E/DX2 analytically  !
 ! D193  D(22,26,28,29)        -83.9178         calculate D2E/DX2 analytically  !
 ! D194  D(22,26,28,86)        156.1279         calculate D2E/DX2 analytically  !
 ! D195  D(27,26,28,20)       -173.7008         calculate D2E/DX2 analytically  !
 ! D196  D(27,26,28,29)         65.977          calculate D2E/DX2 analytically  !
 ! D197  D(27,26,28,86)        -53.9773         calculate D2E/DX2 analytically  !
 ! D198  D(43,26,28,20)        -87.1003         calculate D2E/DX2 analytically  !
 ! D199  D(43,26,28,29)        152.5776         calculate D2E/DX2 analytically  !
 ! D200  D(43,26,28,86)         32.6233         calculate D2E/DX2 analytically  !
 ! D201  D(22,26,43,14)        -95.6035         calculate D2E/DX2 analytically  !
 ! D202  D(22,26,43,17)        173.5697         calculate D2E/DX2 analytically  !
 ! D203  D(22,26,43,19)        -36.4376         calculate D2E/DX2 analytically  !
 ! D204  D(22,26,43,44)         66.4445         calculate D2E/DX2 analytically  !
 ! D205  D(27,26,43,14)        145.3185         calculate D2E/DX2 analytically  !
 ! D206  D(27,26,43,17)         54.4918         calculate D2E/DX2 analytically  !
 ! D207  D(27,26,43,19)       -155.5155         calculate D2E/DX2 analytically  !
 ! D208  D(27,26,43,44)        -52.6334         calculate D2E/DX2 analytically  !
 ! D209  D(28,26,43,14)         23.6872         calculate D2E/DX2 analytically  !
 ! D210  D(28,26,43,17)        -67.1396         calculate D2E/DX2 analytically  !
 ! D211  D(28,26,43,19)         82.8531         calculate D2E/DX2 analytically  !
 ! D212  D(28,26,43,44)       -174.2647         calculate D2E/DX2 analytically  !
 ! D213  D(32,31,39,18)         98.3151         calculate D2E/DX2 analytically  !
 ! D214  D(32,31,39,40)        -17.5741         calculate D2E/DX2 analytically  !
 ! D215  D(32,31,39,58)       -139.1522         calculate D2E/DX2 analytically  !
 ! D216  D(33,31,39,18)       -136.1084         calculate D2E/DX2 analytically  !
 ! D217  D(33,31,39,40)        108.0023         calculate D2E/DX2 analytically  !
 ! D218  D(33,31,39,58)        -13.5758         calculate D2E/DX2 analytically  !
 ! D219  D(42,31,39,18)        -18.3139         calculate D2E/DX2 analytically  !
 ! D220  D(42,31,39,40)       -134.2032         calculate D2E/DX2 analytically  !
 ! D221  D(42,31,39,58)        104.2188         calculate D2E/DX2 analytically  !
 ! D222  D(32,31,42,16)       -104.7495         calculate D2E/DX2 analytically  !
 ! D223  D(33,31,42,16)        137.6907         calculate D2E/DX2 analytically  !
 ! D224  D(39,31,42,16)         15.132          calculate D2E/DX2 analytically  !
 ! D225  D(35,34,37,17)        102.0495         calculate D2E/DX2 analytically  !
 ! D226  D(35,34,37,38)        -12.4289         calculate D2E/DX2 analytically  !
 ! D227  D(35,34,37,45)       -133.3593         calculate D2E/DX2 analytically  !
 ! D228  D(36,34,37,17)       -132.5425         calculate D2E/DX2 analytically  !
 ! D229  D(36,34,37,38)        112.979          calculate D2E/DX2 analytically  !
 ! D230  D(36,34,37,45)         -7.9514         calculate D2E/DX2 analytically  !
 ! D231  D(41,34,37,17)        -14.6555         calculate D2E/DX2 analytically  !
 ! D232  D(41,34,37,38)       -129.134          calculate D2E/DX2 analytically  !
 ! D233  D(41,34,37,45)        109.9357         calculate D2E/DX2 analytically  !
 ! D234  D(35,34,41,15)       -106.0831         calculate D2E/DX2 analytically  !
 ! D235  D(36,34,41,15)        136.5459         calculate D2E/DX2 analytically  !
 ! D236  D(37,34,41,15)         14.1439         calculate D2E/DX2 analytically  !
 ! D237  D(17,37,45,46)         60.4236         calculate D2E/DX2 analytically  !
 ! D238  D(17,37,45,50)       -178.6078         calculate D2E/DX2 analytically  !
 ! D239  D(17,37,45,54)        -60.6541         calculate D2E/DX2 analytically  !
 ! D240  D(34,37,45,46)        -57.3038         calculate D2E/DX2 analytically  !
 ! D241  D(34,37,45,50)         63.6648         calculate D2E/DX2 analytically  !
 ! D242  D(34,37,45,54)       -178.3815         calculate D2E/DX2 analytically  !
 ! D243  D(38,37,45,46)        179.8325         calculate D2E/DX2 analytically  !
 ! D244  D(38,37,45,50)        -59.1988         calculate D2E/DX2 analytically  !
 ! D245  D(38,37,45,54)         58.7549         calculate D2E/DX2 analytically  !
 ! D246  D(18,39,58,59)         60.3825         calculate D2E/DX2 analytically  !
 ! D247  D(18,39,58,63)        -60.392          calculate D2E/DX2 analytically  !
 ! D248  D(18,39,58,67)       -178.7246         calculate D2E/DX2 analytically  !
 ! D249  D(31,39,58,59)        -56.4865         calculate D2E/DX2 analytically  !
 ! D250  D(31,39,58,63)       -177.261          calculate D2E/DX2 analytically  !
 ! D251  D(31,39,58,67)         64.4064         calculate D2E/DX2 analytically  !
 ! D252  D(40,39,58,59)       -179.6871         calculate D2E/DX2 analytically  !
 ! D253  D(40,39,58,63)         59.5384         calculate D2E/DX2 analytically  !
 ! D254  D(40,39,58,67)        -58.7942         calculate D2E/DX2 analytically  !
 ! D255  D(37,45,46,47)        -59.4535         calculate D2E/DX2 analytically  !
 ! D256  D(37,45,46,48)         61.8185         calculate D2E/DX2 analytically  !
 ! D257  D(37,45,46,49)       -178.6923         calculate D2E/DX2 analytically  !
 ! D258  D(50,45,46,47)       -179.094          calculate D2E/DX2 analytically  !
 ! D259  D(50,45,46,48)        -57.8221         calculate D2E/DX2 analytically  !
 ! D260  D(50,45,46,49)         61.6672         calculate D2E/DX2 analytically  !
 ! D261  D(54,45,46,47)         61.7164         calculate D2E/DX2 analytically  !
 ! D262  D(54,45,46,48)       -177.0116         calculate D2E/DX2 analytically  !
 ! D263  D(54,45,46,49)        -57.5224         calculate D2E/DX2 analytically  !
 ! D264  D(37,45,50,51)         58.534          calculate D2E/DX2 analytically  !
 ! D265  D(37,45,50,52)        177.7967         calculate D2E/DX2 analytically  !
 ! D266  D(37,45,50,53)        -62.7049         calculate D2E/DX2 analytically  !
 ! D267  D(46,45,50,51)       -179.8563         calculate D2E/DX2 analytically  !
 ! D268  D(46,45,50,52)        -60.5936         calculate D2E/DX2 analytically  !
 ! D269  D(46,45,50,53)         58.9048         calculate D2E/DX2 analytically  !
 ! D270  D(54,45,50,51)        -60.1087         calculate D2E/DX2 analytically  !
 ! D271  D(54,45,50,52)         59.154          calculate D2E/DX2 analytically  !
 ! D272  D(54,45,50,53)        178.6523         calculate D2E/DX2 analytically  !
 ! D273  D(37,45,54,55)         66.9997         calculate D2E/DX2 analytically  !
 ! D274  D(37,45,54,56)       -173.6855         calculate D2E/DX2 analytically  !
 ! D275  D(37,45,54,57)        -53.5318         calculate D2E/DX2 analytically  !
 ! D276  D(46,45,54,55)        -55.163          calculate D2E/DX2 analytically  !
 ! D277  D(46,45,54,56)         64.1517         calculate D2E/DX2 analytically  !
 ! D278  D(46,45,54,57)       -175.6945         calculate D2E/DX2 analytically  !
 ! D279  D(50,45,54,55)       -175.3931         calculate D2E/DX2 analytically  !
 ! D280  D(50,45,54,56)        -56.0783         calculate D2E/DX2 analytically  !
 ! D281  D(50,45,54,57)         64.0754         calculate D2E/DX2 analytically  !
 ! D282  D(39,58,59,60)        -61.4736         calculate D2E/DX2 analytically  !
 ! D283  D(39,58,59,61)         60.1499         calculate D2E/DX2 analytically  !
 ! D284  D(39,58,59,62)        179.6642         calculate D2E/DX2 analytically  !
 ! D285  D(63,58,59,60)         59.4821         calculate D2E/DX2 analytically  !
 ! D286  D(63,58,59,61)       -178.8943         calculate D2E/DX2 analytically  !
 ! D287  D(63,58,59,62)        -59.38           calculate D2E/DX2 analytically  !
 ! D288  D(67,58,59,60)        178.83           calculate D2E/DX2 analytically  !
 ! D289  D(67,58,59,61)        -59.5465         calculate D2E/DX2 analytically  !
 ! D290  D(67,58,59,62)         59.9678         calculate D2E/DX2 analytically  !
 ! D291  D(39,58,63,64)        -57.4491         calculate D2E/DX2 analytically  !
 ! D292  D(39,58,63,65)         64.0402         calculate D2E/DX2 analytically  !
 ! D293  D(39,58,63,66)       -176.3371         calculate D2E/DX2 analytically  !
 ! D294  D(59,58,63,64)       -179.5017         calculate D2E/DX2 analytically  !
 ! D295  D(59,58,63,65)        -58.0124         calculate D2E/DX2 analytically  !
 ! D296  D(59,58,63,66)         61.6103         calculate D2E/DX2 analytically  !
 ! D297  D(67,58,63,64)         60.3887         calculate D2E/DX2 analytically  !
 ! D298  D(67,58,63,65)       -178.122          calculate D2E/DX2 analytically  !
 ! D299  D(67,58,63,66)        -58.4993         calculate D2E/DX2 analytically  !
 ! D300  D(39,58,67,68)         57.8503         calculate D2E/DX2 analytically  !
 ! D301  D(39,58,67,69)        177.1775         calculate D2E/DX2 analytically  !
 ! D302  D(39,58,67,70)        -63.3658         calculate D2E/DX2 analytically  !
 ! D303  D(59,58,67,68)        179.5183         calculate D2E/DX2 analytically  !
 ! D304  D(59,58,67,69)        -61.1545         calculate D2E/DX2 analytically  !
 ! D305  D(59,58,67,70)         58.3023         calculate D2E/DX2 analytically  !
 ! D306  D(63,58,67,68)        -60.9119         calculate D2E/DX2 analytically  !
 ! D307  D(63,58,67,69)         58.4153         calculate D2E/DX2 analytically  !
 ! D308  D(63,58,67,70)        177.8721         calculate D2E/DX2 analytically  !
 ! D309  D(21,71,72,74)       -179.8831         calculate D2E/DX2 analytically  !
 ! D310  D(21,71,72,75)          0.1875         calculate D2E/DX2 analytically  !
 ! D311  D(73,71,72,74)         -0.4234         calculate D2E/DX2 analytically  !
 ! D312  D(73,71,72,75)        179.6471         calculate D2E/DX2 analytically  !
 ! D313  D(21,71,73,76)        179.8317         calculate D2E/DX2 analytically  !
 ! D314  D(21,71,73,77)          0.6732         calculate D2E/DX2 analytically  !
 ! D315  D(72,71,73,76)          0.4125         calculate D2E/DX2 analytically  !
 ! D316  D(72,71,73,77)       -178.746          calculate D2E/DX2 analytically  !
 ! D317  D(71,72,74,78)          0.0986         calculate D2E/DX2 analytically  !
 ! D318  D(71,72,74,79)       -179.9815         calculate D2E/DX2 analytically  !
 ! D319  D(75,72,74,78)       -179.9719         calculate D2E/DX2 analytically  !
 ! D320  D(75,72,74,79)         -0.052          calculate D2E/DX2 analytically  !
 ! D321  D(71,73,76,78)         -0.0817         calculate D2E/DX2 analytically  !
 ! D322  D(71,73,76,80)       -179.7256         calculate D2E/DX2 analytically  !
 ! D323  D(77,73,76,78)        179.0926         calculate D2E/DX2 analytically  !
 ! D324  D(77,73,76,80)         -0.5513         calculate D2E/DX2 analytically  !
 ! D325  D(72,74,78,76)          0.2518         calculate D2E/DX2 analytically  !
 ! D326  D(72,74,78,85)        179.9667         calculate D2E/DX2 analytically  !
 ! D327  D(79,74,78,76)       -179.6666         calculate D2E/DX2 analytically  !
 ! D328  D(79,74,78,85)          0.0483         calculate D2E/DX2 analytically  !
 ! D329  D(73,76,78,74)         -0.2608         calculate D2E/DX2 analytically  !
 ! D330  D(73,76,78,85)       -179.9999         calculate D2E/DX2 analytically  !
 ! D331  D(80,76,78,74)        179.3918         calculate D2E/DX2 analytically  !
 ! D332  D(80,76,78,85)         -0.3472         calculate D2E/DX2 analytically  !
 ! D333  D(74,78,85,81)         -0.2089         calculate D2E/DX2 analytically  !
 ! D334  D(76,78,85,81)        179.5126         calculate D2E/DX2 analytically  !
 ! D335  D(82,81,85,78)        -61.0391         calculate D2E/DX2 analytically  !
 ! D336  D(83,81,85,78)         61.2552         calculate D2E/DX2 analytically  !
 ! D337  D(84,81,85,78)       -179.8883         calculate D2E/DX2 analytically  !
 ! D338  D(24,87,88,90)       -173.1031         calculate D2E/DX2 analytically  !
 ! D339  D(24,87,88,91)          5.0113         calculate D2E/DX2 analytically  !
 ! D340  D(89,87,88,90)         -0.4345         calculate D2E/DX2 analytically  !
 ! D341  D(89,87,88,91)        177.6799         calculate D2E/DX2 analytically  !
 ! D342  D(24,87,89,92)        174.1745         calculate D2E/DX2 analytically  !
 ! D343  D(24,87,89,93)         -5.4961         calculate D2E/DX2 analytically  !
 ! D344  D(88,87,89,92)          1.3724         calculate D2E/DX2 analytically  !
 ! D345  D(88,87,89,93)       -178.2982         calculate D2E/DX2 analytically  !
 ! D346  D(87,88,90,94)         -0.6875         calculate D2E/DX2 analytically  !
 ! D347  D(87,88,90,95)        178.9514         calculate D2E/DX2 analytically  !
 ! D348  D(91,88,90,94)       -178.8107         calculate D2E/DX2 analytically  !
 ! D349  D(91,88,90,95)          0.8282         calculate D2E/DX2 analytically  !
 ! D350  D(87,89,92,94)         -1.1965         calculate D2E/DX2 analytically  !
 ! D351  D(87,89,92,96)        179.5859         calculate D2E/DX2 analytically  !
 ! D352  D(93,89,92,94)        178.4719         calculate D2E/DX2 analytically  !
 ! D353  D(93,89,92,96)         -0.7457         calculate D2E/DX2 analytically  !
 ! D354  D(88,90,94,92)          0.884          calculate D2E/DX2 analytically  !
 ! D355  D(88,90,94,97)       -179.9083         calculate D2E/DX2 analytically  !
 ! D356  D(95,90,94,92)       -178.7526         calculate D2E/DX2 analytically  !
 ! D357  D(95,90,94,97)          0.4551         calculate D2E/DX2 analytically  !
 ! D358  D(89,92,94,90)          0.0473         calculate D2E/DX2 analytically  !
 ! D359  D(89,92,94,97)       -179.1603         calculate D2E/DX2 analytically  !
 ! D360  D(96,92,94,90)        179.2614         calculate D2E/DX2 analytically  !
 ! D361  D(96,92,94,97)          0.0538         calculate D2E/DX2 analytically  !
 --------------------------------------------------------------------------------
 Trust Radius=3.00D-01 FncErr=5.00D-06 GrdErr=5.00D-06 EigMax=2.50D+02 EigMin=1.00D-04
 Number of steps in this run=    582 maximum allowed number of steps=    582.
 Search for a saddle point of order  1.
 GradGradGradGradGradGradGradGradGradGradGradGradGradGradGradGradGradGrad

 Stoichiometry    C41H46ClN4Ni2O3(4)
 Framework group  C1[X(C41H46ClN4Ni2O3)]
 Deg. of freedom   285
 Full point group                 C1      NOp   1
 Largest Abelian subgroup         C1      NOp   1
 Largest concise Abelian subgroup C1      NOp   1
                         Standard orientation:                         
 ---------------------------------------------------------------------
 Center     Atomic      Atomic             Coordinates (Angstroms)
 Number     Number       Type             X           Y           Z
 ---------------------------------------------------------------------
      1          6           0        3.131774   -0.194635    3.012918
      2          6           0        2.279053    0.623726    3.754733
      3          6           0        0.918410    0.774005    3.354084
      4          6           0        0.521067    0.146152    2.114162
      5          6           0        2.624784   -0.862884    1.875518
      6          1           0        0.174445    1.945677    5.048364
      7          1           0        4.173509   -0.365471    3.320231
      8          1           0        2.634914    1.125718    4.667517
      9          6           0       -0.091049    1.455126    4.099413
     10          6           0       -1.708809    0.822727    2.412305
     11          6           0       -1.413065    1.434532    3.651203
     12          1           0       -2.226938    1.877864    4.243070
     13          7           0       -0.736076    0.286132    1.612283
     14          7           0        1.348854   -0.675877    1.420790
     15          6           0        3.300376   -1.928142    1.153300
     16          6           0       -3.023630    0.608737    1.839424
     17          7           0        2.709147   -2.548322    0.162620
     18          7           0       -3.154442   -0.034750    0.701939
     19         28           0       -1.249530   -0.038702   -0.227207
     20          6           0        0.065082    1.164872   -1.124702
     21          6           0        0.275592    2.430547   -0.639255
     22          6           0       -1.222543   -0.768860   -2.139269
     23          1           0       -1.962616   -1.555446   -2.348623
     24          6           0       -1.486850    0.675596   -2.252614
     25          1           0       -0.838582    1.181071   -2.999949
     26          6           0        0.158774   -1.069192   -1.927935
     27          1           0        0.567883   -2.020928   -2.310076
     28          6           0        0.999191    0.207367   -1.848249
     29          1           0        1.287030    0.582288   -2.866501
     30          1           0       -0.586684    2.908453   -0.137863
     31          6           0       -5.237955    0.689224    1.560597
     32          1           0       -5.581692    1.640456    1.102749
     33          1           0       -6.063850    0.255425    2.155712
     34          6           0        4.692319   -3.649721    0.847820
     35          1           0        4.545097   -4.473140    1.577149
     36          1           0        5.736128   -3.675280    0.481991
     37          6           0        3.612546   -3.639437   -0.276090
     38          1           0        3.029050   -4.585030   -0.266580
     39          6           0       -4.604102   -0.277265    0.521187
     40          1           0       -4.893140    0.018964   -0.507851
     41          8           0        4.500798   -2.390167    1.560857
     42          8           0       -4.146090    1.005045    2.478151
     43         28           0        0.704825   -1.942889    0.012384
     44         17           0       -0.370568   -3.944556   -0.205356
     45          6           0        4.190664   -3.469123   -1.724415
     46          6           0        5.020356   -2.173600   -1.845665
     47          1           0        4.404890   -1.279794   -1.612265
     48          1           0        5.901816   -2.168922   -1.170568
     49          1           0        5.401976   -2.056651   -2.881556
     50          6           0        5.075049   -4.699704   -2.031820
     51          1           0        4.493408   -5.642716   -1.951880
     52          1           0        5.472257   -4.635766   -3.066254
     53          1           0        5.948245   -4.778827   -1.350657
     54          6           0        3.032977   -3.432931   -2.741302
     55          1           0        2.419013   -2.521752   -2.611267
     56          1           0        3.430152   -3.427095   -3.778068
     57          1           0        2.366005   -4.313499   -2.633743
     58          6           0       -4.991776   -1.790230    0.700013
     59          6           0       -4.633589   -2.297239    2.113096
     60          1           0       -3.541947   -2.227443    2.298121
     61          1           0       -5.159883   -1.733368    2.911976
     62          1           0       -4.920421   -3.364193    2.220640
     63          6           0       -4.243800   -2.640367   -0.348012
     64          1           0       -4.471120   -2.297426   -1.379580
     65          1           0       -3.145305   -2.607931   -0.202228
     66          1           0       -4.560505   -3.702019   -0.273678
     67          6           0       -6.512470   -1.925813    0.458280
     68          1           0       -6.795703   -1.558303   -0.551257
     69          1           0       -6.816862   -2.991140    0.526000
     70          1           0       -7.114287   -1.366017    1.205066
     71          6           0        1.484878    3.257554   -0.639594
     72          6           0        1.468621    4.484481    0.079241
     73          6           0        2.698267    2.939757   -1.321012
     74          6           0        2.576011    5.344214    0.135445
     75          1           0        0.548849    4.771973    0.615508
     76          6           0        3.808232    3.786168   -1.273800
     77          1           0        2.773461    2.017484   -1.912641
     78          6           0        3.765993    4.998549   -0.543805
     79          1           0        2.501358    6.279413    0.708644
     80          1           0        4.736463    3.530251   -1.808201
     81          6           0        4.908297    6.987453    0.148966
     82          1           0        4.141653    7.693365   -0.242512
     83          1           0        4.735908    6.838639    1.238677
     84          1           0        5.912022    7.428221    0.000665
     85          8           0        4.902781    5.754419   -0.560717
     86          1           0        1.942551    0.052438   -1.285045
     87          6           0       -2.850582    1.284656   -2.357681
     88          6           0       -3.971640    0.531309   -2.783024
     89          6           0       -3.017777    2.681702   -2.181744
     90          6           0       -5.214154    1.149626   -3.014384
     91          1           0       -3.865890   -0.548713   -2.966016
     92          6           0       -4.262417    3.294941   -2.393889
     93          1           0       -2.152019    3.290875   -1.878879
     94          6           0       -5.369826    2.532181   -2.812533
     95          1           0       -6.065623    0.542322   -3.361653
     96          1           0       -4.366306    4.381678   -2.243350
     97          1           0       -6.343273    3.015277   -2.992427
 ---------------------------------------------------------------------
 Rotational constants (GHZ):           0.0616565           0.0468380           0.0363293
 General basis read from cards:  (5D, 7F)
 ======================================================================================================
                                       Pseudopotential Parameters
 ======================================================================================================
  Center     Atomic      Valence      Angular      Power
  Number     Number     Electrons     Momentum     of R      Exponent        Coefficient   SO-Coeffient
 ======================================================================================================
    1          6
                                   No pseudopotential on this center.
    2          6
                                   No pseudopotential on this center.
    3          6
                                   No pseudopotential on this center.
    4          6
                                   No pseudopotential on this center.
    5          6
                                   No pseudopotential on this center.
    6          1
                                   No pseudopotential on this center.
    7          1
                                   No pseudopotential on this center.
    8          1
                                   No pseudopotential on this center.
    9          6
                                   No pseudopotential on this center.
   10          6
                                   No pseudopotential on this center.
   11          6
                                   No pseudopotential on this center.
   12          1
                                   No pseudopotential on this center.
   13          7
                                   No pseudopotential on this center.
   14          7
                                   No pseudopotential on this center.
   15          6
                                   No pseudopotential on this center.
   16          6
                                   No pseudopotential on this center.
   17          7
                                   No pseudopotential on this center.
   18          7
                                   No pseudopotential on this center.
   19         28           18
                                      D and up 
                                                     1      469.9324331      -10.00000000    0.00000000
                                                     2       85.4236411      -69.40848050    0.00000000
                                                     2       21.2674984      -12.09510200    0.00000000
                                      S - D
                                                     0      162.1686097        3.00000000    0.00000000
                                                     1      176.5333232       22.02536180    0.00000000
                                                     2       68.9562010      443.01810880    0.00000000
                                                     2       13.5792838      145.56964110    0.00000000
                                      P - D
                                                     0       69.0181506        5.00000000    0.00000000
                                                     1      275.5955596        4.98828240    0.00000000
                                                     2       47.1315453      256.69458530    0.00000000
                                                     2       12.9874075       78.47544500    0.00000000
   20          6
                                   No pseudopotential on this center.
   21          6
                                   No pseudopotential on this center.
   22          6
                                   No pseudopotential on this center.
   23          1
                                   No pseudopotential on this center.
   24          6
                                   No pseudopotential on this center.
   25          1
                                   No pseudopotential on this center.
   26          6
                                   No pseudopotential on this center.
   27          1
                                   No pseudopotential on this center.
   28          6
                                   No pseudopotential on this center.
   29          1
                                   No pseudopotential on this center.
   30          1
                                   No pseudopotential on this center.
   31          6
                                   No pseudopotential on this center.
   32          1
                                   No pseudopotential on this center.
   33          1
                                   No pseudopotential on this center.
   34          6
                                   No pseudopotential on this center.
   35          1
                                   No pseudopotential on this center.
   36          1
                                   No pseudopotential on this center.
   37          6
                                   No pseudopotential on this center.
   38          1
                                   No pseudopotential on this center.
   39          6
                                   No pseudopotential on this center.
   40          1
                                   No pseudopotential on this center.
   41          8
                                   No pseudopotential on this center.
   42          8
                                   No pseudopotential on this center.
   43         28           18
                                      D and up 
                                                     1      469.9324331      -10.00000000    0.00000000
                                                     2       85.4236411      -69.40848050    0.00000000
                                                     2       21.2674984      -12.09510200    0.00000000
[...]
 76,0.00001162,0.00002623,-0.00000849,0.00003383,-0.00000319,0.00001105
 ,-0.00000550,0.00000037,-0.00000757,-0.00001819,0.00002486,-0.00003351
 ,0.00001285,-0.00001156,0.00000376,-0.00001609,-0.00000813,0.00000482,
 0.00000156,-0.00000066,0.00001035,0.00000497,-0.00000053,-0.00000378,-
 0.00000005,0.00000360,-0.00000141,0.00000060,-0.00000147,0.00001764,0.
 00001847,-0.00000088,-0.00000158,-0.00000207,-0.00000647,0.00001033,-0
 .00002631,0.00001848,0.00001394,-0.00002061,0.00005009,-0.00002429,0.0
 0001081,-0.00007817,0.00004818,0.00004493,-0.00001576,0.00008182,-0.00
 003498,-0.00000741,-0.00004129,0.00001177,-0.00000213,-0.00000459,0.00
 000119,-0.00000063,0.00000071,-0.00000060,-0.00000151,-0.00000258,0.00
 000062,0.00000091,-0.00000061,0.00000143,0.00000100,0.00000016,-0.0000
 0216,0.00000139,0.00000303,-0.00000092,-0.00000069,-0.00000025,0.00000
 020,0.00000093,-0.00000091,-0.00000201,0.00000117,-0.00000051,0.000001
 30,0.00000107,0.00000734,0.00000012,-0.00000286,-0.00000451,0.00000310
 ,0.00000309,-0.00000190,-0.00000279,-0.00000051,0.00000169,0.00000118,
 0.00000652,0.00000418,0.00001164,-0.00000206,-0.00000571,-0.00000264,0
 .00000004,0.00000118,-0.00000127,-0.00000161,0.00000216,0.00000427,-0.
 00000016,-0.00000344,0.00000295,-0.00000586,-0.00000044,-0.00001436,0.
 00000686,0.00000789,0.00000862,-0.00000172,0.00000125,-0.00000069,-0.0
 0000241,-0.00000466,0.00000708,0.00000004,-0.00000009,-0.00000878,0.00
 000501,0.00000046,0.00000228,-0.00000102,-0.00000330,0.00000210,-0.000
 00244,0.00000191,0.00000482,-0.00003776,-0.00001067,0.00000733,0.00001
 655,-0.00001017,-0.00001586,-0.00000249,0.00000443,-0.00000085,0.00002
 022,0.00000675,-0.00000755,-0.00000362,-0.00000244,0.00000546,0.000001
 67,0.00002450,0.00001129,-0.00000814,-0.00000337,0.00000238,-0.0000402
 9,-0.00002645,0.00000161,0.00000447,0.00000440,0.00000294,0.00000393,0
 .00000004,0.00000019,0.00000133,-0.00003334,-0.00001523,-0.00000446,0.
 00000603,0.00000075,-0.00000216,0.00000303,0.00000473,0.00000181,0.000
 00282,0.00000093,0.00005779,0.00005427,0.00000679,0.00001344,-0.000008
 58,-0.00000764,0.00236193,0.00133791,0.00006655,-0.00004362,0.00070268
 ,0.00008884,-0.00223327,-0.00918774,-0.00139173,-0.00318091,0.00036505
 ,-0.00108537,0.00001622,-0.00011271,0.00006368,0.01585933,-0.32015484,
 -0.01643754,-0.00017351,0.00080349,0.00033358,0.00440205,-0.01112576,-
 0.00007732,0.00022478,-0.00067238,-0.00003350,-0.01720344,0.33791297,-
 0.00000480,0.00000709,0.00001023,0.00001695,-0.00000756,-0.00000106,-0
 .00002397,0.00000964,0.00000496,0.00000323,0.00000092,-0.00000541,0.00
 001065,-0.00001261,-0.00000879,0.00000006,0.00000102,-0.00000102,0.000
 00029,0.00000004,0.00000018,0.00000005,0.00000133,-0.00000065,0.000016
 11,-0.00001250,-0.00000837,0.00002808,0.00000605,0.00000876,-0.0000120
 0,-0.00000610,-0.00001122,-0.00000018,0.00000174,-0.00000743,-0.000004
 54,-0.00000236,0.00000779,-0.00000386,0.00000682,0.00000007,-0.0000080
 0,0.00001812,0.00001556,-0.00008356,0.00001840,-0.00000366,0.00000235,
 -0.00000984,-0.00001177,0.00000889,-0.00000696,0.00001799,-0.00001253,
 0.00001558,-0.00003493,0.00001689,-0.00000405,0.00000259,-0.00003480,-
 0.00000196,-0.00002719,-0.00008057,-0.00001092,-0.00009708,-0.00000495
 ,0.00000763,0.00000789,0.00000393,0.00035367,0.00026055,0.00006603,-0.
 00001034,-0.00000695,0.00004701,0.00000146,-0.00000523,-0.00000428,-0.
 00000217,0.00000446,-0.00000815,-0.00000929,-0.00000880,0.00000261,0.0
 0000719,-0.00000373,-0.00001649,0.00000512,0.00001994,-0.00002249,0.00
 003219,-0.00002185,0.00001594,-0.00000875,0.00000665,0.00000507,-0.000
 00706,0.00000449,-0.00000095,0.00000284,0.00000196,-0.00000022,-0.0000
 0069,-0.00000053,0.00000066,-0.00000041,0.00000014,-0.00000353,0.00000
 307,0.00000215,0.00000060,-0.00000125,-0.00000031,0.00000139,0.0000065
 7,-0.00000009,-0.00001456,0.00000130,0.00000849,0.00000770,-0.00000601
 ,-0.00000268,0.00006292,-0.00003027,-0.00001426,-0.00000551,0.00000812
 ,-0.00001011,-0.00000249,-0.00000764,-0.00000122,0.00000064,-0.0000012
 3,0.00000203,-0.00000037,0.00000006,-0.00000061,0.,-0.00000035,0.00000
 093,-0.00000052,0.00000016,-0.00000004,0.00000079,-0.00000005,-0.00000
 079,0.00000007,0.00000066,-0.00000111,-0.00000003,-0.00000007,0.000000
 26,0.00000058,-0.00000037,-0.00000063,-0.00000038,0.00000013,0.,0.0000
 0055,0.00000015,-0.00000015,-0.00000104,0.00000027,0.00000115,0.000000
 84,-0.00000043,-0.00000114,-0.00000014,0.00000001,0.00000016,0.0000041
 1,0.00000485,-0.00000158,-0.00000015,-0.00000260,-0.00000106,0.0000006
 2,0.00000048,0.00000041,0.00000094,0.00000065,-0.00000223,-0.00000027,
 -0.00000216,0.00000081,0.00000084,0.00000070,0.00000243,-0.00000315,0.
 00000009,-0.00000310,0.00000074,-0.00000055,0.00000207,0.00000058,-0.0
 0000189,-0.00000303,-0.00000222,-0.00000098,-0.00000253,0.00000127,0.0
 0000287,0.00000114,-0.00000014,-0.00000300,0.00000086,0.00000220,0.000
 00079,-0.00000202,0.00001299,0.00000647,-0.00000621,-0.00001419,0.0000
 0518,0.00000780,-0.00000719,-0.00000240,0.00000145,0.00000343,-0.00000
 360,-0.00000448,0.00000023,-0.00000237,-0.00000377,0.00000486,0.000004
 20,-0.00000120,0.00000150,-0.00000223,0.00000026,-0.00000522,-0.000003
 80,0.00000107,-0.00000213,-0.00000134,0.00000115,0.00000142,-0.0000005
 8,0.00000049,-0.00000047,-0.00000080,0.00000208,-0.00000071,0.00000043
 ,0.00000088,-0.00000047,0.00000082,-0.00000124,0.00000076,0.00000010,0
 .00000009,0.00000642,0.00000210,-0.00000302,-0.00000026,0.00000025,-0.
 00000030,-0.00226068,-0.00043896,0.00666455,0.00020306,0.00011472,-0.0
 0080908,-0.00068705,0.00487163,0.00358016,-0.00239798,-0.00078591,0.00
 598111,0.00025782,0.00008433,-0.00095682,-0.00241070,-0.01629179,-0.03
 709679,0.00101696,0.00018844,-0.00387824,0.00045909,-0.00641498,0.0031
 0917,-0.00001835,-0.00029207,0.00018232,0.00484470,0.01820187,0.026629
 18,0.00000104,-0.00000221,-0.00000547,-0.00001070,0.00000177,-0.000002
 74,0.00000855,-0.00000567,-0.00000293,0.00000511,-0.00000477,-0.000005
 82,-0.00001097,0.00001348,0.00000710,-0.00000144,-0.00000040,-0.000002
 20,-0.00000160,-0.00000052,-0.00000024,-0.00000081,-0.00000095,-0.0000
 0212,-0.00001043,0.00000402,0.00000075,-0.00001309,0.00000155,-0.00000
 030,0.00000929,0.00000004,0.00000559,0.00000074,-0.00000136,-0.0000005
 8,0.00000202,0.00000890,-0.00001681,0.00000611,0.00001139,0.00001114,0
 .00003171,-0.00002214,0.00000059,-0.00002334,0.00003657,0.00006428,-0.
 00000519,0.00001741,0.00000325,0.00001746,0.00000928,-0.00005784,0.000
 01313,-0.00001061,0.00001984,0.00000025,-0.00004132,0.00002218,-0.0000
 1391,0.00005635,-0.00004454,-0.00006343,-0.00002052,0.00003010,0.00000
 826,-0.00000934,-0.00001374,0.00007043,0.00006080,0.00021419,-0.000049
 85,-0.00003003,-0.00002627,-0.00000250,0.00002880,-0.00001150,-0.00000
 578,0.00000445,-0.00000329,-0.00000923,0.00000303,-0.00002367,0.000004
 82,-0.00000705,0.00000665,0.00000112,0.00000802,0.00004797,-0.00002507
 ,0.00002245,-0.00001345,0.00000017,-0.00000537,0.00001016,0.00000553,-
 0.00000124,-0.00000476,0.00000122,-0.00000913,-0.00000425,0.00000052,0
 .00000309,0.00000012,-0.00000263,0.00000108,-0.00000027,0.00000308,-0.
 00001312,-0.00001183,0.00000024,0.00000208,0.00000151,0.00000645,-0.00
 001214,0.00002333,-0.00002045,-0.00001854,0.00002803,-0.00003674,0.000
 01992,-0.00000535,0.00004780,-0.00002529,-0.00002527,0.00000812,-0.000
 05187,0.00001817,0.00000564,0.00002953,-0.00000604,0.00000074,0.000003
 34,-0.00000177,0.00000092,-0.00000078,0.00000056,0.00000064,0.00000206
 ,-0.00000024,-0.00000049,0.00000054,-0.00000106,-0.00000064,-0.0000003
 1,0.00000152,-0.00000075,-0.00000232,0.00000112,0.00000059,0.00000055,
 -0.00000021,-0.00000084,0.00000069,0.00000154,-0.00000077,0.00000024,-
 0.00000093,-0.00000055,-0.00000478,-0.00000022,0.00000148,0.00000233,-
 0.00000192,-0.00000193,0.00000089,0.00000201,0.00000038,-0.00000052,-0
 .00000088,-0.00001050,-0.00000786,-0.00001129,0.00000398,0.00000725,0.
 00000236,0.00000046,-0.00000165,0.00000165,0.00000067,-0.00000195,-0.0
 0000288,0.00000008,0.00000388,-0.00000319,0.00000782,0.00000226,0.0000
 1381,-0.00000638,-0.00000785,-0.00000995,0.00000172,-0.00000180,0.0000
 0006,0.00000133,0.00000523,-0.00000661,-0.00000288,0.00000112,0.000004
 41,-0.00000355,-0.00000017,0.00000054,0.00000237,0.00000270,-0.0000009
 6,0.00000174,-0.00000133,-0.00000421,0.00002791,0.00002869,0.00000152,
 -0.00000226,0.00000088,0.00000270,-0.00000098,-0.00000457,-0.00000025,
 -0.00001573,0.00000131,0.00000557,0.00000234,0.00000443,0.00000318,-0.
 00000353,-0.00001609,-0.00000656,0.00000535,0.00000239,-0.00000072,0.0
 0003820,0.00002313,-0.00000059,-0.00000175,-0.00000312,-0.00000171,-0.
 00000379,-0.00000052,0.00000060,0.00000042,0.00002655,0.00001298,0.000
 00336,-0.00000427,-0.00000125,0.00000211,-0.00000263,-0.00000375,-0.00
 000226,-0.00000232,-0.00000056,-0.00004983,-0.00004417,-0.00000539,-0.
 00000619,0.00000821,0.00000345,0.00028849,-0.00063528,0.00022247,0.001
 84737,0.00022792,-0.00108087,-0.00172670,-0.00368800,-0.00210299,0.001
 51551,-0.00229654,-0.00051951,-0.00003557,-0.00013103,-0.00008825,-0.0
 1528520,0.01333769,-0.00310089,-0.00081709,0.00064829,-0.00014071,-0.2
 5992171,0.10743398,-0.04246151,0.00039429,0.00005583,0.00095788,0.0008
 3971,0.00003582,0.00102081,0.27296022,-0.00000051,0.00000083,0.0000022
 7,0.00000494,-0.00000033,0.00000177,-0.00000314,0.00000272,0.00000139,
 -0.00000474,0.00000268,0.00000554,0.00000708,-0.00000731,-0.00000339,0
 .00000064,0.00000041,0.00000092,0.00000085,0.00000028,0.00000011,0.000
 00039,0.00000044,0.00000113,0.00000365,-0.00000151,0.00000029,0.000002
 70,-0.00000093,0.00000331,-0.00000393,0.00000032,-0.00000011,0.0000000
 5,0.00000156,0.00000063,-0.00000688,-0.00000045,0.00000760,-0.00000351
 ,-0.00000721,-0.00000766,-0.00001620,0.00001149,0.00000008,0.00002455,
 -0.00002597,-0.00004342,0.00000258,-0.00000784,-0.00000184,-0.00002676
 ,-0.00000370,0.00003035,0.00001866,-0.00000754,-0.00000400,-0.00004232
 ,-0.00004061,-0.00005350,0.00001341,0.00003608,-0.00001236,0.00002227,
 -0.00004321,-0.00002074,-0.00001931,0.00006749,-0.00000086,0.00001930,
 0.00009981,0.00008564,0.00003961,-0.00001439,-0.00000593,-0.00002113,0
 .00004387,0.00000393,0.00000113,-0.00000282,0.00000373,0.00003243,-0.0
 0000484,0.00001243,0.00000220,0.00000307,0.00000114,-0.00000143,0.0000
 0478,0.00001670,0.00003978,-0.00002958,0.00001702,0.00000711,0.0000170
 6,0.00000421,-0.00000435,0.00000078,0.00000818,-0.00000061,0.00000485,
 0.00000216,-0.00000025,-0.00000164,0.,0.00000133,-0.00000056,0.0000001
 3,-0.00000139,0.00000666,0.00000578,-0.00000019,-0.00000098,-0.0000008
 6,0.00000204,0.00000259,0.00000056,0.00003839,0.00001010,-0.00006629,0
 .00001908,-0.00001034,0.00000301,-0.00005681,0.00002410,0.00001880,-0.
 00000557,0.00002495,-0.00000675,-0.00000045,-0.00001546,0.00000568,-0.
 00000061,-0.00000165,0.00000062,-0.00000024,0.00000015,-0.00000026,-0.
 00000033,-0.00000105,0.00000012,0.00000031,-0.00000018,0.00000057,0.00
 000026,0.00000018,-0.00000071,0.00000053,0.00000126,-0.00000044,-0.000
 00038,-0.00000026,0.00000008,0.00000038,-0.00000035,-0.00000074,0.0000
 0049,-0.00000015,0.00000049,0.00000059,0.00000238,0.00000021,-0.000000
 90,-0.00000166,0.00000086,0.00000091,-0.00000042,-0.00000095,-0.000000
 34,0.00000061,0.00000038,0.00002484,0.00000092,0.00000559,-0.00001294,
 -0.00000328,0.00000219,-0.00000233,0.00000159,-0.00000380,0.00000035,0
 .00000145,0.00000597,0.00000074,-0.00000291,0.00000222,-0.00002408,-0.
 00000834,-0.00003161,0.00002375,0.00001662,0.00001324,-0.00000595,0.00
 000430,-0.00000273,-0.00000058,-0.00000758,0.00001762,0.00000600,0.000
 00057,0.00000949,0.00000703,-0.00000467,-0.00001123,-0.00000463,0.0000
 0090,-0.00000240,-0.00000383,-0.00000017,0.00001102,-0.00000353,0.0000
 0450,0.00000475,0.00000321,-0.00000055,-0.00000103,-0.00000160,-0.0000
 0165,-0.00000045,0.00000404,0.00000039,-0.00000170,-0.00000069,0.00000
 024,0.00000074,0.00000048,0.00000626,0.00000344,-0.00000229,-0.0000010
 3,0.00000072,-0.00001011,-0.00000674,0.,0.00000002,0.00000071,0.000000
 23,0.00000076,-0.00000002,-0.00000024,-0.00000061,-0.00000658,-0.00000
 358,-0.00000072,0.00000108,0.00000047,-0.00000061,0.00000070,0.0000010
 5,0.00000069,0.00000062,0.00000007,0.00001387,0.00001169,0.00000145,0.
 00000727,0.00000237,-0.00000090,-0.00066806,-0.00064305,-0.00010480,-0
 .00088853,-0.00492264,-0.00116761,-0.00255840,-0.00116140,-0.00108145,
 0.02640039,-0.00800420,0.00518891,0.00126943,-0.00053539,0.00023369,-0
 .01538413,0.01001680,-0.00291339,-0.00075256,0.00034384,-0.00011029,0.
 10743479,-0.10849035,0.01814320,-0.00031970,0.00122185,0.00036179,0.00
 042156,0.00078774,0.00040492,-0.11505874,0.11123685,-0.00000371,0.0000
 0593,0.00000910,0.00001365,-0.00000684,-0.00000061,-0.00001842,0.00000
 784,0.00000136,0.00000448,0.00000107,-0.00000569,0.00000228,-0.0000064
 6,-0.00000608,-0.00000030,-0.00000016,-0.00000071,-0.00000037,0.000000
 01,-0.00000003,0.00000022,0.00000067,-0.00000130,0.00001940,-0.0000110
 4,-0.00000677,0.00004077,0.00000680,0.00000496,-0.00001306,-0.00000032
 ,-0.00001459,-0.00000038,-0.00000049,-0.00000482,0.00002062,-0.0000250
 1,0.00002332,-0.00000450,0.00001258,0.00000872,0.00000605,0.00000766,0
 .00001565,-0.00011133,0.00000908,0.00000778,-0.00000180,0.00000382,-0.
 00001174,0.00002365,0.00001583,0.00001382,-0.00005559,0.00009716,-0.00
 008067,0.00009798,0.00008066,0.00012595,-0.00001938,-0.00013273,-0.000
 01951,-0.00002421,0.00004710,-0.00004375,-0.00002654,0.00000087,0.0000
 3100,0.00011806,0.00010699,-0.00084102,0.00013593,0.00001795,-0.000018
 15,0.00001043,0.00000816,0.00000380,-0.00000419,-0.00000296,0.00000837
 ,-0.00002581,0.00001623,0.00001146,-0.00000716,0.00000507,-0.00000717,
 -0.00002236,0.00001298,-0.00000099,-0.00005055,0.00003790,-0.00004634,
 -0.00000397,-0.00001414,-0.00002006,0.00000648,-0.00000400,-0.00000042
 ,-0.00000070,-0.00000107,0.00000005,-0.00000011,0.00000071,-0.00000044
 ,-0.00000064,0.00000017,-0.00000014,-0.00000342,-0.00000430,-0.0000046
 9,0.00000089,-0.00000044,0.00000050,-0.00001715,0.00000486,-0.00000211
 ,-0.00000818,0.00000516,-0.00000226,-0.00001018,0.00000308,-0.00000535
 ,0.00010860,-0.00002525,-0.00000446,0.00001334,-0.00003748,0.00000685,
 0.00000391,0.00001098,-0.00000489,0.00000126,0.00000077,0.00000082,-0.
 00000032,0.00000020,-0.00000007,0.00000026,0.00000033,0.00000035,-0.00
 000054,0.00000017,-0.00000051,0.00000032,-0.00000014,0.00000007,-0.000
 00046,-0.00000053,-0.00000028,0.00000020,-0.00000005,0.00000016,0.0000
 0017,0.00000010,0.00000014,-0.00000060,0.00000019,-0.00000041,-0.00000
 077,-0.00000146,-0.00000018,0.00000045,0.00000156,0.00000033,-0.000000
 01,0.00000014,0.,0.00000014,-0.00000068,-0.00000009,0.00000249,0.00000
 229,-0.00000985,0.00000025,-0.00000237,0.00000010,0.00000240,-0.000000
 38,0.00000174,0.00000044,0.00000017,-0.00000358,0.00000020,-0.00000193
 ,0.00000133,-0.00000136,-0.00000607,0.00000907,-0.00000017,0.00000726,
 -0.00000241,0.00000051,-0.00000017,-0.00000062,0.00000102,-0.00000384,
 -0.00000061,-0.00000255,-0.00000161,0.00000042,-0.00000144,0.00000535,
 0.00000843,0.00000279,-0.00000536,0.00000219,0.00000271,0.00000244,-0.
 00001004,0.00000206,0.00001855,-0.00001249,-0.00000410,-0.00000578,-0.
 00000384,-0.00001110,-0.00000061,0.00000479,0.00001048,-0.00000044,-0.
 00000414,0.00000005,-0.00000013,0.00000119,0.00000318,0.00001005,0.000
 00328,0.00000135,-0.00000129,0.00000007,-0.00001128,-0.00000569,0.0000
 0161,-0.00000016,-0.00000006,0.00000101,0.00000114,-0.00000007,-0.0000
 0014,-0.00000012,-0.00000632,-0.00000208,-0.00000107,0.00000131,0.0000
 0054,-0.00000067,0.00000094,0.00000052,0.00000053,0.00000061,0.0000002
 5,0.00001557,0.00001122,-0.00000033,-0.00000664,-0.00000287,0.00000088
 ,0.00009708,-0.00045491,-0.00088495,-0.00092989,-0.00081928,0.00635295
 ,-0.00192409,-0.00137483,0.00600273,0.00165248,-0.00131508,0.00325401,
 0.00001074,-0.00009258,0.00027676,-0.00509459,0.00355561,0.00213522,-0
 .00032235,0.00020511,0.00019109,-0.04282121,0.01822630,-0.04209653,0.0
 0100640,0.00047378,-0.00353255,0.00104874,0.00031798,-0.00348333,0.047
 07741,-0.01899255,0.03267909\\0.00000074,0.00000115,-0.00000043,0.0000
 0057,0.00000158,-0.00000015,0.00000035,0.00000100,-0.00000074,0.000000
 23,0.00000021,-0.00000027,-0.00000013,0.00000109,0.00000023,0.00000072
 ,0.00000174,-0.00000061,0.00000050,0.00000129,-0.00000040,0.00000066,0
 .00000176,-0.00000062,0.00000060,0.00000155,-0.00000024,0.00000179,0.0
 0000144,0.00000055,0.00000055,0.00000132,-0.00000006,0.00000054,0.0000
 0137,-0.00000034,0.00000260,0.00000020,0.00000042,-0.00000050,0.000000
 29,0.00000131,0.00000065,0.00000022,0.00000023,-0.00000031,0.00000124,
 0.00000093,0.00000003,0.00000032,-0.00000023,-0.00000236,-0.00000041,-
 0.00000233,-0.00000020,0.00000150,0.00000104,-0.00000065,-0.00000101,-
 0.00000059,0.00000012,-0.00000029,-0.00000067,0.00000085,0.00000135,0.
 00000118,-0.00000051,-0.00000123,0.00000119,-0.00000004,-0.00000269,0.
 00000014,-0.00000045,-0.00000160,-0.00000052,-0.00000072,-0.00000038,0
 .00000061,-0.00000032,-0.00000100,0.00000064,-0.00000092,-0.00000057,-
 0.00000055,-0.00000047,-0.00000081,-0.00000030,-0.00000006,-0.00000004
 ,-0.00000075,0.00000010,0.00000022,0.00000055,0.00000024,0.00000025,0.
 00000032,0.00000020,0.00000060,0.00000074,-0.00000006,0.00000066,0.000
 00109,0.00000053,0.00000072,0.00000093,0.00000019,0.00000053,0.0000004
 5,-0.00000058,0.00000027,0.00000023,-0.00000006,-0.00000004,0.00000098
 ,-0.00000008,-0.00000030,0.00000065,-0.00000022,-0.00000047,0.00000093
 ,0.00000059,0.00000046,0.00000023,0.00000015,0.00000074,0.00000048,0.0
 0000071,0.00000089,-0.00000041,0.00000185,0.00000005,0.00000183,-0.000
 00006,-0.00000046,0.00000055,-0.00000012,-0.00000025,-0.00000012,-0.00
 000008,-0.00000032,0.00000012,0.00000012,-0.00000028,-0.00000030,-0.00
 000054,-0.00000050,-0.00000018,0.,-0.00000056,0.00000099,-0.00000017,-
 0.00000043,0.00000090,0.,-0.00000064,0.00000083,-0.00000023,-0.0000004
 4,0.00000078,-0.00000052,-0.00000057,0.00000079,-0.00000029,-0.0000006
 2,0.00000022,-0.00000051,-0.00000120,0.00000049,-0.00000050,-0.0000007
 8,0.00000084,0.00000030,0.00000010,0.00000142,0.00000044,0.00000067,0.
 00000142,0.00000046,0.00000065,0.00000130,0.00000055,0.00000091,0.0000
 0128,0.00000044,0.00000067,0.00000185,0.00000006,-0.00000006,0.0000015
 0,0.00000006,-0.00000041,0.00000113,-0.00000020,-0.00000012,0.00000126
 ,0.00000013,-0.00000013,0.00000188,0.00000017,0.00000003,0.00000164,0.
 00000003,-0.00000031,0.00000156,0.00000023,0.00000004,0.00000194,0.000
 00025,0.00000021,0.00000151,-0.00000028,-0.00000004,-0.00000146,-0.000
 00011,0.00000004,-0.00000161,-0.00000025,-0.00000024,-0.00000130,-0.00
 000020,0.00000015,-0.00000212,-0.00000006,0.00000024,-0.00000168,-0.00
 000029,-0.00000024,-0.00000177,-0.00000033,-0.00000049,-0.00000103,-0.
 00000018,-0.00000003,-0.00000209,-0.00000016,0.00000039,-0.00000234,-0
 .00000034,-0.00000040,-0.00000177,-0.00000021,0.00000025,-0.00000291,-
 0.00000025,0.00000002,-0.00000312,-0.00000004,0.00000057,-0.00000298,-
 0.00000023,0.00000022,-0.00000325,-0.00000028,0.00000004,-0.00000261,-
 0.00000005,-0.00000027,-0.00000023,-0.00000031,-0.00000079,-0.00000054
 ,-0.00000018,-0.00000099,-0.00000032,-0.00000028,-0.00000090,0.0000001
 1,-0.00000041,-0.00000112,0.00000040,-0.00000021,-0.00000096,0.0000010
 4,-0.00000058,-0.00000086,-0.00000067,-0.00000039,-0.00000067,-0.00000
 074,-0.00000045,-0.00000103,-0.00000005,-0.00000042,-0.00000123,0.0000
 0073,-0.00000046,-0.00000091,-0.00000086,-0.00000049,-0.00000116,-0.00
 000011\\\@


 TRUTH, IN SCIENCE, CAN BE DEFINED AS THE WORKING HYPOTHESIS 
 BEST FITTED TO OPEN THE WAY TO THE NEXT BETTER ONE.

                              -- KONRAD LORENZ
 Job cpu time:       1 days 19 hours 35 minutes 54.4 seconds.
 Elapsed time:       0 days  3 hours 38 minutes 34.2 seconds.
 File lengths (MBytes):  RWF=  18899 Int=      0 D2E=      0 Chk=    145 Scr=      1
 Normal termination of Gaussian 16 at Thu Jun  2 23:17:48 2022.
