 Entering Gaussian System, Link 0=g16
 Input=Pro_R_E_c2_m06l.com
 Output=Pro_R_E_c2_m06l.log
 Initial command:
 /apps/gaussian16/B.01/AVX2/g16/l1.exe "/tmp/51822067/Gau-31821.inp" -scrdir="/tmp/51822067/"
 Entering Link 1 = /apps/gaussian16/B.01/AVX2/g16/l1.exe PID=     31822.
  
 Copyright (c) 1988-2017, Gaussian, Inc.  All Rights Reserved.
  
 This is part of the Gaussian(R) 16 program.  It is based on
 the Gaussian(R) 09 system (copyright 2009, Gaussian, Inc.),
 the Gaussian(R) 03 system (copyright 2003, Gaussian, Inc.),
 the Gaussian(R) 98 system (copyright 1998, Gaussian, Inc.),
 the Gaussian(R) 94 system (copyright 1995, Gaussian, Inc.),
 the Gaussian 92(TM) system (copyright 1992, Gaussian, Inc.),
 the Gaussian 90(TM) system (copyright 1990, Gaussian, Inc.),
 the Gaussian 88(TM) system (copyright 1988, Gaussian, Inc.),
 the Gaussian 86(TM) system (copyright 1986, Carnegie Mellon
 University), and the Gaussian 82(TM) system (copyright 1983,
 Carnegie Mellon University). Gaussian is a federally registered
 trademark of Gaussian, Inc.
  
 This software contains proprietary and confidential information,
 including trade secrets, belonging to Gaussian, Inc.
  
 This software is provided under written license and may be
 used, copied, transmitted, or stored only in accord with that
 written license.
  
 The following legend is applicable only to US Government
 contracts under FAR:
  
                    RESTRICTED RIGHTS LEGEND
  
 Use, reproduction and disclosure by the US Government is
 subject to restrictions as set forth in subparagraphs (a)
 and (c) of the Commercial Computer Software - Restricted
 Rights clause in FAR 52.227-19.
  
 Gaussian, Inc.
 340 Quinnipiac St., Bldg. 40, Wallingford CT 06492
  
  
 ---------------------------------------------------------------
 Warning -- This program may not be used in any manner that
 competes with the business of Gaussian, Inc. or will provide
 assistance to any competitor of Gaussian, Inc.  The licensee
 of this program is prohibited from giving any competitor of
 Gaussian, Inc. access to this program.  By using this program,
 the user acknowledges that Gaussian, Inc. is engaged in the
 business of creating and licensing software in the field of
 computational chemistry and represents and warrants to the
 licensee that it is not a competitor of Gaussian, Inc. and that
 it will not use this program in any manner prohibited above.
 ---------------------------------------------------------------
  

 Cite this work as:
 Gaussian 16, Revision B.01,
 M. J. Frisch, G. W. Trucks, H. B. Schlegel, G. E. Scuseria, 
 M. A. Robb, J. R. Cheeseman, G. Scalmani, V. Barone, 
 G. A. Petersson, H. Nakatsuji, X. Li, M. Caricato, A. V. Marenich, 
 J. Bloino, B. G. Janesko, R. Gomperts, B. Mennucci, H. P. Hratchian, 
 J. V. Ortiz, A. F. Izmaylov, J. L. Sonnenberg, D. Williams-Young, 
 F. Ding, F. Lipparini, F. Egidi, J. Goings, B. Peng, A. Petrone, 
 T. Henderson, D. Ranasinghe, V. G. Zakrzewski, J. Gao, N. Rega, 
 G. Zheng, W. Liang, M. Hada, M. Ehara, K. Toyota, R. Fukuda, 
 J. Hasegawa, M. Ishida, T. Nakajima, Y. Honda, O. Kitao, H. Nakai, 
 T. Vreven, K. Throssell, J. A. Montgomery, Jr., J. E. Peralta, 
 F. Ogliaro, M. J. Bearpark, J. J. Heyd, E. N. Brothers, K. N. Kudin, 
 V. N. Staroverov, T. A. Keith, R. Kobayashi, J. Normand, 
 K. Raghavachari, A. P. Rendell, J. C. Burant, S. S. Iyengar, 
 J. Tomasi, M. Cossi, J. M. Millam, M. Klene, C. Adamo, R. Cammi, 
 J. W. Ochterski, R. L. Martin, K. Morokuma, O. Farkas, 
 J. B. Foresman, and D. J. Fox, Gaussian, Inc., Wallingford CT, 2016.
 
 ******************************************
 Gaussian 16:  ES64L-G16RevB.01 20-Dec-2017
                24-Aug-2022 
 ******************************************
 %nprocshared=12
 Will use up to   12 processors via shared memory.
 %mem=24GB
 --------------------------------------------------------------------
 #m06l/gen pseudo=read integral=ultrafine temperature=308 scrf=(read)
 --------------------------------------------------------------------
 1/38=1,40=2,112=308000,172=1/1;
 2/12=2,17=6,18=5,40=1/2;
 3/5=7,11=2,16=1,17=8,25=1,30=1,70=2203,74=-53,75=-5/1,2,3;
 4//1;
 5/5=2,38=5/2;
 6/7=2,8=2,9=2,10=2,28=1/1;
 99/5=1,9=1/99;
 -------------------
 Title Card Required
 -------------------
 Symbolic Z-matrix:
 Charge =  0 Multiplicity = 2
 C                     2.07241  -2.2998    3.32133 
 C                     1.12383  -1.81727   4.22239 
 C                    -0.06214  -1.19392   3.73664 
 C                    -0.19266  -1.037     2.30508 
 C                     1.83983  -2.14485   1.93341 
 H                    -1.0602   -0.82456   5.65165 
 H                     2.97798  -2.82093   3.66199 
 H                     1.26544  -1.94033   5.30725 
 C                    -1.13706  -0.73555   4.55731 
 C                    -2.3449   -0.13319   2.54987 
 C                    -2.28976  -0.2279    3.95953 
 H                    -3.15985   0.08008   4.55725 
 N                    -1.2911   -0.45625   1.74379 
 N                     0.7555   -1.49509   1.44789 
 C                     2.68507  -2.74216   0.89563 
 C                    -3.52151   0.21474   1.76892 
 N                     2.42045  -2.66984  -0.37449 
 N                    -3.52593   0.04278   0.47018 
 Ni                   -1.61397  -0.27825  -0.21383 
 C                     1.6951    0.4008   -0.57618 
 C                     2.40946   1.00941   0.40674 
 C                    -1.07314   0.34238  -2.10745 
 H                    -1.86179  -0.03961  -2.77931 
 C                    -1.34293   1.49451  -1.3187 
 H                    -0.5047    1.93385  -0.7486 
 C                     0.27187  -0.23143  -2.26172 
 H                     0.35047  -0.99237  -3.05922 
 C                     1.48292   0.68935  -2.02957 
 H                     1.29692   1.76129  -2.28654 
 H                     2.32594   0.60548   1.43294 
 C                    -5.58562   0.91809   1.25423 
 H                    -5.73626   2.01491   1.19733 
 H                    -6.5484    0.43415   1.50971 
 C                     4.3898   -3.94881   0.07645 
 H                     4.53312  -5.04276   0.16596 
 H                     5.38391  -3.45971   0.00369 
 C                     3.41177  -3.53177  -1.06416 
 H                     2.85584  -4.42648  -1.43053 
 C                    -4.88848   0.33861  -0.01537 
 H                    -4.82209   1.11675  -0.80541 
 O                     3.75284  -3.47506   1.29631 
 O                    -4.65467   0.65523   2.35055 
 Ni                    0.5983   -1.1593   -0.51304 
 Cl                   -1.23894  -2.69238  -0.76986 
 C                     4.09303  -2.89568  -2.31621 
 C                     4.78002  -1.56223  -1.95692 
 H                     4.05972  -0.84732  -1.50916 
 H                     5.61092  -1.70077  -1.23297 
 H                     5.21628  -1.0967   -2.86531 
 C                     5.1346   -3.89786  -2.86517 
 H                     4.66817  -4.8779   -3.10308 
 H                     5.58646  -3.50574  -3.80025 
 H                     5.96582  -4.07756  -2.15088 
 C                     3.01195  -2.66235  -3.39109 
 H                     2.21285  -1.99865  -3.00972 
 H                     3.45282  -2.19666  -4.29736 
 H                     2.53725  -3.6192   -3.69583 
 C                    -5.58476  -0.91343  -0.65488 
 C                    -5.6598   -2.07856   0.35356 
 H                    -4.64477  -2.39846   0.66695 
 H                    -6.23832  -1.81272   1.26397 
 H                    -6.16145  -2.95463  -0.10804 
 C                    -4.77589  -1.35599  -1.89306 
 H                    -4.71503  -0.53802  -2.64193 
 H                    -3.7433   -1.65673  -1.62009 
 H                    -5.26738  -2.22345  -2.38228 
 C                    -7.00488  -0.50194  -1.10407 
 H                    -6.9724    0.35275  -1.81317 
 H                    -7.5026   -1.3492   -1.62045 
 H                    -7.65463  -0.21269  -0.25105 
 C                     3.30539   2.17771   0.31419 
 C                     3.80718   2.75023   1.51153 
 C                     3.72496   2.78406  -0.90511 
 C                     4.66123   3.86533   1.51675 
 H                     3.51274   2.30488   2.47671 
 C                     4.57502   3.89353  -0.91678 
 H                     3.39179   2.37175  -1.8676 
 C                     5.05207   4.45233   0.29282 
 H                     5.01539   4.26671   2.47712 
 H                     4.89472   4.35111  -1.86611 
 C                     6.38658   6.13038   1.3618 
 H                     5.57172   6.51617   2.01507 
 H                     7.00858   5.4172    1.94849 
 H                     7.01992   6.97812   1.03906 
 O                     5.87649   5.53557   0.17503 
 H                     2.34941   0.35387  -2.64418 
 C                    -2.4912    2.40462  -1.48844 
 C                    -3.37252   2.33674  -2.60025 
 C                    -2.70562   3.44271  -0.54213 
 C                    -4.42558   3.25495  -2.74912 
 H                    -3.21188   1.57078  -3.37479 
 C                    -3.75988   4.35636  -0.68827 
 H                    -2.02538   3.52457   0.3217 
 C                    -4.62971   4.26756  -1.79325 
 H                    -5.0864    3.18534  -3.62825 
 H                    -3.90064   5.15167   0.06153 
 H                    -5.45212   4.99024  -1.9145 
 
 Stoichiometry    C41H46ClN4Ni2O3(2)
 Framework group  C1[X(C41H46ClN4Ni2O3)]
 Deg. of freedom   285
 Full point group                 C1      NOp   1
 Largest Abelian subgroup         C1      NOp   1
 Largest concise Abelian subgroup C1      NOp   1
                         Standard orientation:                         
 ---------------------------------------------------------------------
 Center     Atomic      Atomic             Coordinates (Angstroms)
 Number     Number       Type             X           Y           Z
 ---------------------------------------------------------------------
      1          6           0        2.072412   -2.299804    3.321334
      2          6           0        1.123832   -1.817269    4.222386
      3          6           0       -0.062138   -1.193918    3.736635
      4          6           0       -0.192657   -1.036997    2.305077
      5          6           0        1.839830   -2.144851    1.933414
      6          1           0       -1.060199   -0.824559    5.651655
      7          1           0        2.977976   -2.820931    3.661986
      8          1           0        1.265440   -1.940333    5.307248
      9          6           0       -1.137056   -0.735545    4.557312
     10          6           0       -2.344895   -0.133193    2.549865
     11          6           0       -2.289758   -0.227904    3.959529
     12          1           0       -3.159852    0.080076    4.557253
     13          7           0       -1.291101   -0.456253    1.743789
     14          7           0        0.755499   -1.495093    1.447891
     15          6           0        2.685071   -2.742163    0.895627
     16          6           0       -3.521512    0.214735    1.768915
     17          7           0        2.420448   -2.669843   -0.374487
     18          7           0       -3.525932    0.042781    0.470175
     19         28           0       -1.613967   -0.278245   -0.213832
     20          6           0        1.695101    0.400804   -0.576177
     21          6           0        2.409459    1.009405    0.406744
     22          6           0       -1.073137    0.342384   -2.107445
     23          1           0       -1.861787   -0.039610   -2.779313
     24          6           0       -1.342932    1.494509   -1.318696
     25          1           0       -0.504695    1.933846   -0.748596
     26          6           0        0.271872   -0.231434   -2.261715
     27          1           0        0.350473   -0.992372   -3.059218
     28          6           0        1.482923    0.689352   -2.029573
     29          1           0        1.296919    1.761292   -2.286537
     30          1           0        2.325940    0.605478    1.432936
     31          6           0       -5.585618    0.918089    1.254232
     32          1           0       -5.736262    2.014911    1.197326
     33          1           0       -6.548400    0.434153    1.509709
     34          6           0        4.389804   -3.948813    0.076453
     35          1           0        4.533116   -5.042763    0.165963
     36          1           0        5.383908   -3.459712    0.003693
     37          6           0        3.411773   -3.531773   -1.064164
     38          1           0        2.855841   -4.426478   -1.430529
     39          6           0       -4.888484    0.338607   -0.015369
     40          1           0       -4.822089    1.116754   -0.805412
     41          8           0        3.752841   -3.475064    1.296313
     42          8           0       -4.654674    0.655231    2.350552
     43         28           0        0.598301   -1.159301   -0.513044
     44         17           0       -1.238937   -2.692376   -0.769859
     45          6           0        4.093026   -2.895680   -2.316208
     46          6           0        4.780017   -1.562230   -1.956919
     47          1           0        4.059718   -0.847322   -1.509156
     48          1           0        5.610915   -1.700773   -1.232971
     49          1           0        5.216276   -1.096704   -2.865306
     50          6           0        5.134602   -3.897862   -2.865168
     51          1           0        4.668170   -4.877901   -3.103079
     52          1           0        5.586459   -3.505742   -3.800252
     53          1           0        5.965821   -4.077560   -2.150882
     54          6           0        3.011950   -2.662349   -3.391091
     55          1           0        2.212849   -1.998647   -3.009722
     56          1           0        3.452815   -2.196662   -4.297360
     57          1           0        2.537250   -3.619203   -3.695827
     58          6           0       -5.584760   -0.913427   -0.654884
     59          6           0       -5.659801   -2.078559    0.353555
     60          1           0       -4.644773   -2.398456    0.666949
     61          1           0       -6.238324   -1.812717    1.263966
     62          1           0       -6.161447   -2.954632   -0.108036
     63          6           0       -4.775894   -1.355991   -1.893064
     64          1           0       -4.715032   -0.538017   -2.641933
     65          1           0       -3.743301   -1.656727   -1.620089
     66          1           0       -5.267383   -2.223451   -2.382280
     67          6           0       -7.004883   -0.501941   -1.104074
     68          1           0       -6.972396    0.352752   -1.813165
     69          1           0       -7.502603   -1.349196   -1.620452
     70          1           0       -7.654632   -0.212693   -0.251053
     71          6           0        3.305391    2.177713    0.314193
     72          6           0        3.807180    2.750234    1.511525
     73          6           0        3.724959    2.784061   -0.905108
     74          6           0        4.661226    3.865325    1.516753
     75          1           0        3.512740    2.304880    2.476705
     76          6           0        4.575017    3.893534   -0.916777
     77          1           0        3.391791    2.371752   -1.867599
     78          6           0        5.052070    4.452334    0.292817
     79          1           0        5.015387    4.266712    2.477117
     80          1           0        4.894723    4.351107   -1.866107
     81          6           0        6.386584    6.130377    1.361795
     82          1           0        5.571718    6.516174    2.015071
     83          1           0        7.008577    5.417204    1.948493
     84          1           0        7.019921    6.978117    1.039058
     85          8           0        5.876490    5.535566    0.175034
     86          1           0        2.349412    0.353872   -2.644180
     87          6           0       -2.491202    2.404615   -1.488436
     88          6           0       -3.372525    2.336736   -2.600250
     89          6           0       -2.705618    3.442710   -0.542134
     90          6           0       -4.425577    3.254950   -2.749116
     91          1           0       -3.211879    1.570784   -3.374786
     92          6           0       -3.759880    4.356364   -0.688270
     93          1           0       -2.025382    3.524573    0.321695
     94          6           0       -4.629712    4.267558   -1.793250
     95          1           0       -5.086399    3.185342   -3.628254
     96          1           0       -3.900640    5.151667    0.061529
     97          1           0       -5.452116    4.990238   -1.914502
 ---------------------------------------------------------------------
 Rotational constants (GHZ):           0.0664950           0.0411590           0.0348589
 General basis read from cards:  (5D, 7F)
 ======================================================================================================
                                       Pseudopotential Parameters
 ======================================================================================================
  Center     Atomic      Valence      Angular      Power
  Number     Number     Electrons     Momentum     of R      Exponent        Coefficient   SO-Coeffient
 ======================================================================================================
    1          6
                                   No pseudopotential on this center.
    2          6
                                   No pseudopotential on this center.
    3          6
                                   No pseudopotential on this center.
    4          6
                                   No pseudopotential on this center.
    5          6
                                   No pseudopotential on this center.
    6          1
                                   No pseudopotential on this center.
    7          1
                                   No pseudopotential on this center.
    8          1
                                   No pseudopotential on this center.
    9          6
                                   No pseudopotential on this center.
   10          6
                                   No pseudopotential on this center.
   11          6
                                   No pseudopotential on this center.
   12          1
                                   No pseudopotential on this center.
   13          7
                                   No pseudopotential on this center.
   14          7
                                   No pseudopotential on this center.
   15          6
                                   No pseudopotential on this center.
   16          6
                                   No pseudopotential on this center.
   17          7
                                   No pseudopotential on this center.
   18          7
                                   No pseudopotential on this center.
   19         28           18
                                      D and up 
                                                     1      469.9324331      -10.00000000    0.00000000
                                                     2       85.4236411      -69.40848050    0.00000000
                                                     2       21.2674984      -12.09510200    0.00000000
                                      S - D
                                                     0      162.1686097        3.00000000    0.00000000
                                                     1      176.5333232       22.02536180    0.00000000
                                                     2       68.9562010      443.01810880    0.00000000
                                                     2       13.5792838      145.56964110    0.00000000
                                      P - D
                                                     0       69.0181506        5.00000000    0.00000000
                                                     1      275.5955596        4.98828240    0.00000000
                                                     2       47.1315453      256.69458530    0.00000000
                                                     2       12.9874075       78.47544500    0.00000000
   20          6
                                   No pseudopotential on this center.
   21          6
                                   No pseudopotential on this center.
   22          6
                                   No pseudopotential on this center.
   23          1
                                   No pseudopotential on this center.
   24          6
                                   No pseudopotential on this center.
   25          1
                                   No pseudopotential on this center.
   26          6
                                   No pseudopotential on this center.
   27          1
                                   No pseudopotential on this center.
   28          6
                                   No pseudopotential on this center.
   29          1
                                   No pseudopotential on this center.
   30          1
                                   No pseudopotential on this center.
   31          6
                                   No pseudopotential on this center.
   32          1
                                   No pseudopotential on this center.
   33          1
                                   No pseudopotential on this center.
   34          6
                                   No pseudopotential on this center.
   35          1
                                   No pseudopotential on this center.
   36          1
                                   No pseudopotential on this center.
   37          6
                                   No pseudopotential on this center.
   38          1
                                   No pseudopotential on this center.
   39          6
                                   No pseudopotential on this center.
   40          1
                                   No pseudopotential on this center.
   41          8
                                   No pseudopotential on this center.
   42          8
                                   No pseudopotential on this center.
   43         28           18
                                      D and up 
                                                     1      469.9324331      -10.00000000    0.00000000
                                                     2       85.4236411      -69.40848050    0.00000000
                                                     2       21.2674984      -12.09510200    0.00000000
                                      S - D
                                                     0      162.1686097        3.00000000    0.00000000
                                                     1      176.5333232       22.02536180    0.00000000
                                                     2       68.9562010      443.01810880    0.00000000
                                                     2       13.5792838      145.56964110    0.00000000
                                      P - D
                                                     0       69.0181506        5.00000000    0.00000000
                                                     1      275.5955596        4.98828240    0.00000000
                                                     2       47.1315453      256.69458530    0.00000000
                                                     2       12.9874075       78.47544500    0.00000000
   44         17
                                   No pseudopotential on this center.
   45          6
                                   No pseudopotential on this center.
   46          6
                                   No pseudopotential on this center.
   47          1
                                   No pseudopotential on this center.
   48          1
                                   No pseudopotential on this center.
   49          1
                                   No pseudopotential on this center.
   50          6
                                   No pseudopotential on this center.
   51          1
                                   No pseudopotential on this center.
   52          1
                                   No pseudopotential on this center.
   53          1
                                   No pseudopotential on this center.
   54          6
                                   No pseudopotential on this center.
   55          1
                                   No pseudopotential on this center.
   56          1
                                   No pseudopotential on this center.
   57          1
                                   No pseudopotential on this center.
   58          6
                                   No pseudopotential on this center.
   59          6
                                   No pseudopotential on this center.
   60          1
                                   No pseudopotential on this center.
   61          1
                                   No pseudopotential on this center.
   62          1
                                   No pseudopotential on this center.
   63          6
                                   No pseudopotential on this center.
   64          1
                                   No pseudopotential on this center.
   65          1
                                   No pseudopotential on this center.
   66          1
                                   No pseudopotential on this center.
   67          6
                                   No pseudopotential on this center.
   68          1
                                   No pseudopotential on this center.
   69          1
                                   No pseudopotential on this center.
   70          1
                                   No pseudopotential on this center.
   71          6
                                   No pseudopotential on this center.
   72          6
                                   No pseudopotential on this center.
   73          6
                                   No pseudopotential on this center.
   74          6
                                   No pseudopotential on this center.
   75          1
                                   No pseudopotential on this center.
   76          6
                                   No pseudopotential on this center.
   77          1
                                   No pseudopotential on this center.
   78          6
                                   No pseudopotential on this center.
   79          1
                                   No pseudopotential on this center.
   80          1
                                   No pseudopotential on this center.
   81          6
                                   No pseudopotential on this center.
   82          1
                                   No pseudopotential on this center.
   83          1
                                   No pseudopotential on this center.
   84          1
                                   No pseudopotential on this center.
   85          8
                                   No pseudopotential on this center.
   86          1
                                   No pseudopotential on this center.
   87          6
                                   No pseudopotential on this center.
   88          6
                                   No pseudopotential on this center.
   89          6
                                   No pseudopotential on this center.
   90          6
                                   No pseudopotential on this center.
   91          1
                                   No pseudopotential on this center.
   92          6
                                   No pseudopotential on this center.
   93          1
                                   No pseudopotential on this center.
   94          6
                                   No pseudopotential on this center.
   95          1
                                   No pseudopotential on this center.
   96          1
                                   No pseudopotential on this center.
   97          1
                                   No pseudopotential on this center.
 ======================================================================================================
 There are  2094 symmetry adapted cartesian basis functions of A   symmetry.
 There are  1845 symmetry adapted basis functions of A   symmetry.
  1845 basis functions,  2989 primitive gaussians,  2094 cartesian basis functions
   199 alpha electrons      198 beta electrons
       nuclear repulsion energy      8330.8489083804 Hartrees.
 NAtoms=   97 NActive=   97 NUniq=   97 SFac= 1.00D+00 NAtFMM=   60 NAOKFM=T Big=T
 Integral buffers will be    131072 words long.
 Raffenetti 2 integral format.
 Two-electron integral symmetry is turned on.
 Using the following non-standard input for PCM:
 Eps=4.5
 --- end of non-standard input.
 ------------------------------------------------------------------------------
 Polarizable Continuum Model (PCM)
 =================================
 Model                : PCM.
 Atomic radii         : UFF (Universal Force Field).
 Polarization charges : Total charges.
 Charge compensation  : None.
 Solution method      : On-the-fly selection.
 Cavity type          : Scaled VdW (van der Waals Surface) (Alpha=1.100).
 Cavity algorithm     : GePol (No added spheres)
                        Default sphere list used, NSphG=   97.
                        Lebedev-Laikov grids with approx.  5.0 points / Ang**2.
                        Smoothing algorithm: York/Karplus (Gamma=1.0000).
                        Polarization charges: spherical gaussians, with
                                              point-specific exponents (IZeta= 3).
                        Self-potential: point-specific (ISelfS= 7).
                        Self-field    : sphere-specific E.n sum rule (ISelfD= 2).
 Solvent              : Water, Eps=   4.500000 Eps(inf)=   1.777849
 ------------------------------------------------------------------------------
 One-electron integrals computed using PRISM.
   1 Symmetry operations used in ECPInt.
 ECPInt:  NShTT=  274911 NPrTT=  843013 LenC2=  197813 LenP2D=  396121.
 LDataN:  DoStor=T MaxTD1= 6 Len=  172
 NBasis=  1845 RedAO= T EigKep=  7.59D-06  NBF=  1845
 NBsUse=  1845 1.00D-06 EigRej= -1.00D+00 NBFU=  1845
 ExpMin= 2.40D-02 ExpMax= 6.95D+04 ExpMxC= 2.37D+03 IAcc=3 IRadAn=         5 AccDes= 0.00D+00
 Harris functional with IExCor= 1009 and IRadAn=       5 diagonalized for initial guess.
 HarFok:  IExCor= 1009 AccDes= 0.00D+00 IRadAn=         5 IDoV= 1 UseB2=F ITyADJ=14
 ICtDFT=  3500011 ScaDFX=  1.000000  1.000000  1.000000  1.000000
 FoFCou: FMM=F IPFlag=           0 FMFlag=      100000 FMFlg1=        2001
         NFxFlg=           0 DoJE=T BraDBF=F KetDBF=T FulRan=T
         wScrn=  0.000000 ICntrl=       500 IOpCl=  0 I1Cent=   200000004 NGrid=           0
         NMat0=    1 NMatS0=      1 NMatT0=    0 NMatD0=    1 NMtDS0=    0 NMtDT0=    0
 Petite list used in FoFCou.
 Initial guess <Sx>= 0.0000 <Sy>= 0.0000 <Sz>= 0.5000 <S**2>= 0.7500 S= 0.5000
 Requested convergence on RMS density matrix=1.00D-08 within 128 cycles.
 Requested convergence on MAX density matrix=1.00D-06.
 Requested convergence on             energy=1.00D-06.
 No special actions if energy rises.
 Inv3:  Mode=1 IEnd=   106743675.
 Iteration    1 A*A^-1 deviation from unit magnitude is 4.00D-15 for   5356.
 Iteration    1 A*A^-1 deviation from orthogonality  is 2.50D-15 for   5397   4266.
 Iteration    1 A^-1*A deviation from unit magnitude is 4.00D-15 for   5356.
 Iteration    1 A^-1*A deviation from orthogonality  is 8.27D-15 for   4094   4079.
 EnCoef did   100 forward-backward iterations
 EnCoef did   100 forward-backward iterations
 EnCoef did   100 forward-backward iterations
 EnCoef did     4 forward-backward iterations
 EnCoef did     1 forward-backward iterations
 EnCoef did     2 forward-backward iterations
 EnCoef did   100 forward-backward iterations
 EnCoef did   100 forward-backward iterations
 EnCoef did     3 forward-backward iterations
 EnCoef did     5 forward-backward iterations
 EnCoef did     1 forward-backward iterations
 EnCoef did     7 forward-backward iterations
 EnCoef did     5 forward-backward iterations
 Restarting incremental Fock formation.
 Error on total polarization charges =  0.01554
 SCF Done:  E(UM06L) =  -2834.22924281     A.U. after   35 cycles
            NFock= 35  Conv=0.35D-08     -V/T= 2.0518
 <Sx>= 0.0000 <Sy>= 0.0000 <Sz>= 0.5000 <S**2>= 0.8054 S= 0.5273
 <L.S>=  0.00000000000    
 Annihilation of the first spin contaminant:
 S**2 before annihilation     0.8054,   after     0.7515

 **********************************************************************

            Population analysis using the SCF Density.

 **********************************************************************

 Orbital symmetries:
 Alpha Orbitals:
       Occupied  (A) (A) (A) (A) (A) (A) (A) (A) (A) (A) (A) (A)
                 (A) (A) (A) (A) (A) (A) (A) (A) (A) (A) (A) (A)
                 (A) (A) (A) (A) (A) (A) (A) (A) (A) (A) (A) (A)
                 (A) (A) (A) (A) (A) (A) (A) (A) (A) (A) (A) (A)
                 (A) (A) (A) (A) (A) (A) (A) (A) (A) (A) (A) (A)
                 (A) (A) (A) (A) (A) (A) (A) (A) (A) (A) (A) (A)
                 (A) (A) (A) (A) (A) (A) (A) (A) (A) (A) (A) (A)
                 (A) (A) (A) (A) (A) (A) (A) (A) (A) (A) (A) (A)
                 (A) (A) (A) (A) (A) (A) (A) (A) (A) (A) (A) (A)
                 (A) (A) (A) (A) (A) (A) (A) (A) (A) (A) (A) (A)
                 (A) (A) (A) (A) (A) (A) (A) (A) (A) (A) (A) (A)
                 (A) (A) (A) (A) (A) (A) (A) (A) (A) (A) (A) (A)
                 (A) (A) (A) (A) (A) (A) (A) (A) (A) (A) (A) (A)
                 (A) (A) (A) (A) (A) (A) (A) (A) (A) (A) (A) (A)
                 (A) (A) (A) (A) (A) (A) (A) (A) (A) (A) (A) (A)
                 (A) (A) (A) (A) (A) (A) (A) (A) (A) (A) (A) (A)
                 (A) (A) (A) (A) (A) (A) (A)
       Virtual   (A) (A) (A) (A) (A) (A) (A) (A) (A) (A) (A) (A)
                 (A) (A) (A) (A) (A) (A) (A) (A) (A) (A) (A) (A)
                 (A) (A) (A) (A) (A) (A) (A) (A) (A) (A) (A) (A)
                 (A) (A) (A) (A) (A) (A) (A) (A) (A) (A) (A) (A)
                 (A) (A) (A) (A) (A) (A) (A) (A) (A) (A) (A) (A)
                 (A) (A) (A) (A) (A) (A) (A) (A) (A) (A) (A) (A)
                 (A) (A) (A) (A) (A) (A) (A) (A) (A) (A) (A) (A)
                 (A) (A) (A) (A) (A) (A) (A) (A) (A) (A) (A) (A)
                 (A) (A) (A) (A) (A) (A) (A) (A) (A) (A) (A) (A)
                 (A) (A) (A) (A) (A) (A) (A) (A) (A) (A) (A) (A)
                 (A) (A) (A) (A) (A) (A) (A) (A) (A) (A) (A) (A)
                 (A) (A) (A) (A) (A) (A) (A) (A) (A) (A) (A) (A)
                 (A) (A) (A) (A) (A) (A) (A) (A) (A) (A) (A) (A)
                 (A) (A) (A) (A) (A) (A) (A) (A) (A) (A) (A) (A)
                 (A) (A) (A) (A) (A) (A) (A) (A) (A) (A) (A) (A)
                 (A) (A) (A) (A) (A) (A) (A) (A) (A) (A) (A) (A)
                 (A) (A) (A) (A) (A) (A) (A) (A) (A) (A) (A) (A)
                 (A) (A) (A) (A) (A) (A) (A) (A) (A) (A) (A) (A)
                 (A) (A) (A) (A) (A) (A) (A) (A) (A) (A) (A) (A)
                 (A) (A) (A) (A) (A) (A) (A) (A) (A) (A) (A) (A)
                 (A) (A) (A) (A) (A) (A) (A) (A) (A) (A) (A) (A)
                 (A) (A) (A) (A) (A) (A) (A) (A) (A) (A) (A) (A)
                 (A) (A) (A) (A) (A) (A) (A) (A) (A) (A) (A) (A)
                 (A) (A) (A) (A) (A) (A) (A) (A) (A) (A) (A) (A)
                 (A) (A) (A) (A) (A) (A) (A) (A) (A) (A) (A) (A)
                 (A) (A) (A) (A) (A) (A) (A) (A) (A) (A) (A) (A)
                 (A) (A) (A) (A) (A) (A) (A) (A) (A) (A) (A) (A)
                 (A) (A) (A) (A) (A) (A) (A) (A) (A) (A) (A) (A)
                 (A) (A) (A) (A) (A) (A) (A) (A) (A) (A) (A) (A)
                 (A) (A) (A) (A) (A) (A) (A) (A) (A) (A) (A) (A)
                 (A) (A) (A) (A) (A) (A) (A) (A) (A) (A) (A) (A)
                 (A) (A) (A) (A) (A) (A) (A) (A) (A) (A) (A) (A)
                 (A) (A) (A) (A) (A) (A) (A) (A) (A) (A) (A) (A)
                 (A) (A) (A) (A) (A) (A) (A) (A) (A) (A) (A) (A)
                 (A) (A) (A) (A) (A) (A) (A) (A) (A) (A) (A) (A)
                 (A) (A) (A) (A) (A) (A) (A) (A) (A) (A) (A) (A)
                 (A) (A) (A) (A) (A) (A) (A) (A) (A) (A) (A) (A)
                 (A) (A) (A) (A) (A) (A) (A) (A) (A) (A) (A) (A)
                 (A) (A) (A) (A) (A) (A) (A) (A) (A) (A) (A) (A)
                 (A) (A) (A) (A) (A) (A) (A) (A) (A) (A) (A) (A)
                 (A) (A) (A) (A) (A) (A) (A) (A) (A) (A) (A) (A)
                 (A) (A) (A) (A) (A) (A) (A) (A) (A) (A) (A) (A)
                 (A) (A) (A) (A) (A) (A) (A) (A) (A) (A) (A) (A)
                 (A) (A) (A) (A) (A) (A) (A) (A) (A) (A) (A) (A)
                 (A) (A) (A) (A) (A) (A) (A) (A) (A) (A) (A) (A)
                 (A) (A) (A) (A) (A) (A) (A) (A) (A) (A) (A) (A)
                 (A) (A) (A) (A) (A) (A) (A) (A) (A) (A) (A) (A)
                 (A) (A) (A) (A) (A) (A) (A) (A) (A) (A) (A) (A)
                 (A) (A) (A) (A) (A) (A) (A) (A) (A) (A) (A) (A)
                 (A) (A) (A) (A) (A) (A) (A) (A) (A) (A) (A) (A)
                 (A) (A) (A) (A) (A) (A) (A) (A) (A) (A) (A) (A)
                 (A) (A) (A) (A) (A) (A) (A) (A) (A) (A) (A) (A)
                 (A) (A) (A) (A) (A) (A) (A) (A) (A) (A) (A) (A)
                 (A) (A) (A) (A) (A) (A) (A) (A) (A) (A) (A) (A)
                 (A) (A) (A) (A) (A) (A) (A) (A) (A) (A) (A) (A)
                 (A) (A) (A) (A) (A) (A) (A) (A) (A) (A) (A) (A)
                 (A) (A) (A) (A) (A) (A) (A) (A) (A) (A) (A) (A)
                 (A) (A) (A) (A) (A) (A) (A) (A) (A) (A) (A) (A)
                 (A) (A) (A) (A) (A) (A) (A) (A) (A) (A) (A) (A)
                 (A) (A) (A) (A) (A) (A) (A) (A) (A) (A) (A) (A)
                 (A) (A) (A) (A) (A) (A) (A) (A) (A) (A) (A) (A)
                 (A) (A) (A) (A) (A) (A) (A) (A) (A) (A) (A) (A)
                 (A) (A) (A) (A) (A) (A) (A) (A) (A) (A) (A) (A)
                 (A) (A) (A) (A) (A) (A) (A) (A) (A) (A) (A) (A)
                 (A) (A) (A) (A) (A) (A) (A) (A) (A) (A) (A) (A)
                 (A) (A) (A) (A) (A) (A) (A) (A) (A) (A) (A) (A)
                 (A) (A) (A) (A) (A) (A) (A) (A) (A) (A) (A) (A)
                 (A) (A) (A) (A) (A) (A) (A) (A) (A) (A) (A) (A)
                 (A) (A) (A) (A) (A) (A) (A) (A) (A) (A) (A) (A)
                 (A) (A) (A) (A) (A) (A) (A) (A) (A) (A) (A) (A)
                 (A) (A) (A) (A) (A) (A) (A) (A) (A) (A) (A) (A)
                 (A) (A) (A) (A) (A) (A) (A) (A) (A) (A) (A) (A)
                 (A) (A) (A) (A) (A) (A) (A) (A) (A) (A) (A) (A)
                 (A) (A) (A) (A) (A) (A) (A) (A) (A) (A) (A) (A)
                 (A) (A) (A) (A) (A) (A) (A) (A) (A) (A) (A) (A)
                 (A) (A) (A) (A) (A) (A) (A) (A) (A) (A) (A) (A)
                 (A) (A) (A) (A) (A) (A) (A) (A) (A) (A) (A) (A)
                 (A) (A) (A) (A) (A) (A) (A) (A) (A) (A) (A) (A)
                 (A) (A) (A) (A) (A) (A) (A) (A) (A) (A) (A) (A)
                 (A) (A) (A) (A) (A) (A) (A) (A) (A) (A) (A) (A)
                 (A) (A) (A) (A) (A) (A) (A) (A) (A) (A) (A) (A)
                 (A) (A) (A) (A) (A) (A) (A) (A) (A) (A) (A) (A)
                 (A) (A) (A) (A) (A) (A) (A) (A) (A) (A) (A) (A)
                 (A) (A) (A) (A) (A) (A) (A) (A) (A) (A) (A) (A)
                 (A) (A) (A) (A) (A) (A) (A) (A) (A) (A) (A) (A)
                 (A) (A) (A) (A) (A) (A) (A) (A) (A) (A) (A) (A)
                 (A) (A) (A) (A) (A) (A) (A) (A) (A) (A) (A) (A)
                 (A) (A) (A) (A) (A) (A) (A) (A) (A) (A) (A) (A)
                 (A) (A) (A) (A) (A) (A) (A) (A) (A) (A) (A) (A)
                 (A) (A) (A) (A) (A) (A) (A) (A) (A) (A) (A) (A)
                 (A) (A) (A) (A) (A) (A) (A) (A) (A) (A) (A) (A)
                 (A) (A) (A) (A) (A) (A) (A) (A) (A) (A) (A) (A)
                 (A) (A) (A) (A) (A) (A) (A) (A) (A) (A) (A) (A)
                 (A) (A) (A) (A) (A) (A) (A) (A) (A) (A) (A) (A)
                 (A) (A) (A) (A) (A) (A) (A) (A) (A) (A) (A) (A)
                 (A) (A) (A) (A) (A) (A) (A) (A) (A) (A) (A) (A)
                 (A) (A) (A) (A) (A) (A) (A) (A) (A) (A) (A) (A)
                 (A) (A) (A) (A) (A) (A) (A) (A) (A) (A) (A) (A)
                 (A) (A) (A) (A) (A) (A) (A) (A) (A) (A) (A) (A)
                 (A) (A) (A) (A) (A) (A) (A) (A) (A) (A) (A) (A)
                 (A) (A) (A) (A) (A) (A) (A) (A) (A) (A) (A) (A)
                 (A) (A) (A) (A) (A) (A) (A) (A) (A) (A) (A) (A)
                 (A) (A) (A) (A) (A) (A) (A) (A) (A) (A) (A) (A)
                 (A) (A) (A) (A) (A) (A) (A) (A) (A) (A) (A) (A)
                 (A) (A) (A) (A) (A) (A) (A) (A) (A) (A) (A) (A)
                 (A) (A) (A) (A) (A) (A) (A) (A) (A) (A) (A) (A)
                 (A) (A) (A) (A) (A) (A) (A) (A) (A) (A) (A) (A)
                 (A) (A) (A) (A) (A) (A) (A) (A) (A) (A) (A) (A)
                 (A) (A) (A) (A) (A) (A) (A) (A) (A) (A) (A) (A)
                 (A) (A) (A) (A) (A) (A) (A) (A) (A) (A) (A) (A)
                 (A) (A) (A) (A) (A) (A) (A) (A) (A) (A) (A) (A)
                 (A) (A) (A) (A) (A) (A) (A) (A) (A) (A) (A) (A)
                 (A) (A) (A) (A) (A) (A) (A) (A) (A) (A) (A) (A)
                 (A) (A) (A) (A) (A) (A) (A) (A) (A) (A) (A) (A)
                 (A) (A) (A) (A) (A) (A) (A) (A) (A) (A) (A) (A)
                 (A) (A) (A) (A) (A) (A) (A) (A) (A) (A) (A) (A)
                 (A) (A) (A) (A) (A) (A) (A) (A) (A) (A) (A) (A)
                 (A) (A) (A) (A) (A) (A) (A) (A) (A) (A) (A) (A)
                 (A) (A) (A) (A) (A) (A) (A) (A) (A) (A) (A) (A)
                 (A) (A) (A) (A) (A) (A) (A) (A) (A) (A) (A) (A)
                 (A) (A) (A) (A) (A) (A) (A) (A) (A) (A) (A) (A)
                 (A) (A) (A) (A) (A) (A) (A) (A) (A) (A) (A) (A)
                 (A) (A) (A) (A) (A) (A) (A) (A) (A) (A) (A) (A)
                 (A) (A) (A) (A) (A) (A) (A) (A) (A) (A) (A) (A)
                 (A) (A) (A) (A) (A) (A) (A) (A) (A) (A) (A) (A)
                 (A) (A) (A) (A) (A) (A) (A) (A) (A) (A) (A) (A)
                 (A) (A) (A) (A) (A) (A) (A) (A) (A) (A) (A) (A)
                 (A) (A) (A) (A) (A) (A) (A) (A) (A) (A) (A) (A)
                 (A) (A) (A) (A) (A) (A) (A) (A) (A) (A) (A) (A)
                 (A) (A) (A) (A) (A) (A) (A) (A) (A) (A) (A) (A)
                 (A) (A) (A) (A) (A) (A) (A) (A) (A) (A) (A) (A)
                 (A) (A) (A) (A) (A) (A) (A) (A) (A) (A) (A) (A)
                 (A) (A) (A) (A) (A) (A) (A) (A) (A) (A) (A) (A)
                 (A) (A) (A) (A) (A) (A) (A) (A) (A) (A) (A) (A)
                 (A) (A) (A) (A) (A) (A) (A) (A) (A) (A) (A) (A)
                 (A) (A) (A) (A) (A) (A) (A) (A) (A) (A) (A) (A)
                 (A) (A) (A) (A) (A) (A) (A) (A) (A) (A) (A) (A)
                 (A) (A)
 Beta  Orbitals:
       Occupied  (A) (A) (A) (A) (A) (A) (A) (A) (A) (A) (A) (A)
                 (A) (A) (A) (A) (A) (A) (A) (A) (A) (A) (A) (A)
                 (A) (A) (A) (A) (A) (A) (A) (A) (A) (A) (A) (A)
                 (A) (A) (A) (A) (A) (A) (A) (A) (A) (A) (A) (A)
                 (A) (A) (A) (A) (A) (A) (A) (A) (A) (A) (A) (A)
                 (A) (A) (A) (A) (A) (A) (A) (A) (A) (A) (A) (A)
                 (A) (A) (A) (A) (A) (A) (A) (A) (A) (A) (A) (A)
                 (A) (A) (A) (A) (A) (A) (A) (A) (A) (A) (A) (A)
                 (A) (A) (A) (A) (A) (A) (A) (A) (A) (A) (A) (A)
                 (A) (A) (A) (A) (A) (A) (A) (A) (A) (A) (A) (A)
                 (A) (A) (A) (A) (A) (A) (A) (A) (A) (A) (A) (A)
                 (A) (A) (A) (A) (A) (A) (A) (A) (A) (A) (A) (A)
                 (A) (A) (A) (A) (A) (A) (A) (A) (A) (A) (A) (A)
                 (A) (A) (A) (A) (A) (A) (A) (A) (A) (A) (A) (A)
                 (A) (A) (A) (A) (A) (A) (A) (A) (A) (A) (A) (A)
                 (A) (A) (A) (A) (A) (A) (A) (A) (A) (A) (A) (A)
                 (A) (A) (A) (A) (A) (A)
       Virtual   (A) (A) (A) (A) (A) (A) (A) (A) (A) (A) (A) (A)
                 (A) (A) (A) (A) (A) (A) (A) (A) (A) (A) (A) (A)
                 (A) (A) (A) (A) (A) (A) (A) (A) (A) (A) (A) (A)
                 (A) (A) (A) (A) (A) (A) (A) (A) (A) (A) (A) (A)
                 (A) (A) (A) (A) (A) (A) (A) (A) (A) (A) (A) (A)
                 (A) (A) (A) (A) (A) (A) (A) (A) (A) (A) (A) (A)
                 (A) (A) (A) (A) (A) (A) (A) (A) (A) (A) (A) (A)
                 (A) (A) (A) (A) (A) (A) (A) (A) (A) (A) (A) (A)
                 (A) (A) (A) (A) (A) (A) (A) (A) (A) (A) (A) (A)
                 (A) (A) (A) (A) (A) (A) (A) (A) (A) (A) (A) (A)
                 (A) (A) (A) (A) (A) (A) (A) (A) (A) (A) (A) (A)
                 (A) (A) (A) (A) (A) (A) (A) (A) (A) (A) (A) (A)
                 (A) (A) (A) (A) (A) (A) (A) (A) (A) (A) (A) (A)
                 (A) (A) (A) (A) (A) (A) (A) (A) (A) (A) (A) (A)
                 (A) (A) (A) (A) (A) (A) (A) (A) (A) (A) (A) (A)
                 (A) (A) (A) (A) (A) (A) (A) (A) (A) (A) (A) (A)
                 (A) (A) (A) (A) (A) (A) (A) (A) (A) (A) (A) (A)
                 (A) (A) (A) (A) (A) (A) (A) (A) (A) (A) (A) (A)
                 (A) (A) (A) (A) (A) (A) (A) (A) (A) (A) (A) (A)
                 (A) (A) (A) (A) (A) (A) (A) (A) (A) (A) (A) (A)
                 (A) (A) (A) (A) (A) (A) (A) (A) (A) (A) (A) (A)
                 (A) (A) (A) (A) (A) (A) (A) (A) (A) (A) (A) (A)
                 (A) (A) (A) (A) (A) (A) (A) (A) (A) (A) (A) (A)
                 (A) (A) (A) (A) (A) (A) (A) (A) (A) (A) (A) (A)
                 (A) (A) (A) (A) (A) (A) (A) (A) (A) (A) (A) (A)
                 (A) (A) (A) (A) (A) (A) (A) (A) (A) (A) (A) (A)
                 (A) (A) (A) (A) (A) (A) (A) (A) (A) (A) (A) (A)
                 (A) (A) (A) (A) (A) (A) (A) (A) (A) (A) (A) (A)
                 (A) (A) (A) (A) (A) (A) (A) (A) (A) (A) (A) (A)
                 (A) (A) (A) (A) (A) (A) (A) (A) (A) (A) (A) (A)
                 (A) (A) (A) (A) (A) (A) (A) (A) (A) (A) (A) (A)
                 (A) (A) (A) (A) (A) (A) (A) (A) (A) (A) (A) (A)
                 (A) (A) (A) (A) (A) (A) (A) (A) (A) (A) (A) (A)
                 (A) (A) (A) (A) (A) (A) (A) (A) (A) (A) (A) (A)
                 (A) (A) (A) (A) (A) (A) (A) (A) (A) (A) (A) (A)
                 (A) (A) (A) (A) (A) (A) (A) (A) (A) (A) (A) (A)
                 (A) (A) (A) (A) (A) (A) (A) (A) (A) (A) (A) (A)
                 (A) (A) (A) (A) (A) (A) (A) (A) (A) (A) (A) (A)
                 (A) (A) (A) (A) (A) (A) (A) (A) (A) (A) (A) (A)
                 (A) (A) (A) (A) (A) (A) (A) (A) (A) (A) (A) (A)
                 (A) (A) (A) (A) (A) (A) (A) (A) (A) (A) (A) (A)
                 (A) (A) (A) (A) (A) (A) (A) (A) (A) (A) (A) (A)
                 (A) (A) (A) (A) (A) (A) (A) (A) (A) (A) (A) (A)
                 (A) (A) (A) (A) (A) (A) (A) (A) (A) (A) (A) (A)
                 (A) (A) (A) (A) (A) (A) (A) (A) (A) (A) (A) (A)
                 (A) (A) (A) (A) (A) (A) (A) (A) (A) (A) (A) (A)
                 (A) (A) (A) (A) (A) (A) (A) (A) (A) (A) (A) (A)
                 (A) (A) (A) (A) (A) (A) (A) (A) (A) (A) (A) (A)
                 (A) (A) (A) (A) (A) (A) (A) (A) (A) (A) (A) (A)
                 (A) (A) (A) (A) (A) (A) (A) (A) (A) (A) (A) (A)
                 (A) (A) (A) (A) (A) (A) (A) (A) (A) (A) (A) (A)
                 (A) (A) (A) (A) (A) (A) (A) (A) (A) (A) (A) (A)
                 (A) (A) (A) (A) (A) (A) (A) (A) (A) (A) (A) (A)
                 (A) (A) (A) (A) (A) (A) (A) (A) (A) (A) (A) (A)
                 (A) (A) (A) (A) (A) (A) (A) (A) (A) (A) (A) (A)
                 (A) (A) (A) (A) (A) (A) (A) (A) (A) (A) (A) (A)
                 (A) (A) (A) (A) (A) (A) (A) (A) (A) (A) (A) (A)
                 (A) (A) (A) (A) (A) (A) (A) (A) (A) (A) (A) (A)
                 (A) (A) (A) (A) (A) (A) (A) (A) (A) (A) (A) (A)
                 (A) (A) (A) (A) (A) (A) (A) (A) (A) (A) (A) (A)
                 (A) (A) (A) (A) (A) (A) (A) (A) (A) (A) (A) (A)
                 (A) (A) (A) (A) (A) (A) (A) (A) (A) (A) (A) (A)
                 (A) (A) (A) (A) (A) (A) (A) (A) (A) (A) (A) (A)
                 (A) (A) (A) (A) (A) (A) (A) (A) (A) (A) (A) (A)
                 (A) (A) (A) (A) (A) (A) (A) (A) (A) (A) (A) (A)
                 (A) (A) (A) (A) (A) (A) (A) (A) (A) (A) (A) (A)
                 (A) (A) (A) (A) (A) (A) (A) (A) (A) (A) (A) (A)
                 (A) (A) (A) (A) (A) (A) (A) (A) (A) (A) (A) (A)
                 (A) (A) (A) (A) (A) (A) (A) (A) (A) (A) (A) (A)
                 (A) (A) (A) (A) (A) (A) (A) (A) (A) (A) (A) (A)
                 (A) (A) (A) (A) (A) (A) (A) (A) (A) (A) (A) (A)
                 (A) (A) (A) (A) (A) (A) (A) (A) (A) (A) (A) (A)
                 (A) (A) (A) (A) (A) (A) (A) (A) (A) (A) (A) (A)
                 (A) (A) (A) (A) (A) (A) (A) (A) (A) (A) (A) (A)
                 (A) (A) (A) (A) (A) (A) (A) (A) (A) (A) (A) (A)
                 (A) (A) (A) (A) (A) (A) (A) (A) (A) (A) (A) (A)
                 (A) (A) (A) (A) (A) (A) (A) (A) (A) (A) (A) (A)
                 (A) (A) (A) (A) (A) (A) (A) (A) (A) (A) (A) (A)
                 (A) (A) (A) (A) (A) (A) (A) (A) (A) (A) (A) (A)
                 (A) (A) (A) (A) (A) (A) (A) (A) (A) (A) (A) (A)
                 (A) (A) (A) (A) (A) (A) (A) (A) (A) (A) (A) (A)
                 (A) (A) (A) (A) (A) (A) (A) (A) (A) (A) (A) (A)
                 (A) (A) (A) (A) (A) (A) (A) (A) (A) (A) (A) (A)
                 (A) (A) (A) (A) (A) (A) (A) (A) (A) (A) (A) (A)
                 (A) (A) (A) (A) (A) (A) (A) (A) (A) (A) (A) (A)
                 (A) (A) (A) (A) (A) (A) (A) (A) (A) (A) (A) (A)
                 (A) (A) (A) (A) (A) (A) (A) (A) (A) (A) (A) (A)
                 (A) (A) (A) (A) (A) (A) (A) (A) (A) (A) (A) (A)
                 (A) (A) (A) (A) (A) (A) (A) (A) (A) (A) (A) (A)
                 (A) (A) (A) (A) (A) (A) (A) (A) (A) (A) (A) (A)
                 (A) (A) (A) (A) (A) (A) (A) (A) (A) (A) (A) (A)
                 (A) (A) (A) (A) (A) (A) (A) (A) (A) (A) (A) (A)
                 (A) (A) (A) (A) (A) (A) (A) (A) (A) (A) (A) (A)
                 (A) (A) (A) (A) (A) (A) (A) (A) (A) (A) (A) (A)
                 (A) (A) (A) (A) (A) (A) (A) (A) (A) (A) (A) (A)
                 (A) (A) (A) (A) (A) (A) (A) (A) (A) (A) (A) (A)
                 (A) (A) (A) (A) (A) (A) (A) (A) (A) (A) (A) (A)
                 (A) (A) (A) (A) (A) (A) (A) (A) (A) (A) (A) (A)
                 (A) (A) (A) (A) (A) (A) (A) (A) (A) (A) (A) (A)
                 (A) (A) (A) (A) (A) (A) (A) (A) (A) (A) (A) (A)
                 (A) (A) (A) (A) (A) (A) (A) (A) (A) (A) (A) (A)
                 (A) (A) (A) (A) (A) (A) (A) (A) (A) (A) (A) (A)
                 (A) (A) (A) (A) (A) (A) (A) (A) (A) (A) (A) (A)
                 (A) (A) (A) (A) (A) (A) (A) (A) (A) (A) (A) (A)
                 (A) (A) (A) (A) (A) (A) (A) (A) (A) (A) (A) (A)
                 (A) (A) (A) (A) (A) (A) (A) (A) (A) (A) (A) (A)
                 (A) (A) (A) (A) (A) (A) (A) (A) (A) (A) (A) (A)
                 (A) (A) (A) (A) (A) (A) (A) (A) (A) (A) (A) (A)
                 (A) (A) (A) (A) (A) (A) (A) (A) (A) (A) (A) (A)
                 (A) (A) (A) (A) (A) (A) (A) (A) (A) (A) (A) (A)
                 (A) (A) (A) (A) (A) (A) (A) (A) (A) (A) (A) (A)
                 (A) (A) (A) (A) (A) (A) (A) (A) (A) (A) (A) (A)
                 (A) (A) (A) (A) (A) (A) (A) (A) (A) (A) (A) (A)
                 (A) (A) (A) (A) (A) (A) (A) (A) (A) (A) (A) (A)
                 (A) (A) (A) (A) (A) (A) (A) (A) (A) (A) (A) (A)
                 (A) (A) (A) (A) (A) (A) (A) (A) (A) (A) (A) (A)
                 (A) (A) (A) (A) (A) (A) (A) (A) (A) (A) (A) (A)
                 (A) (A) (A) (A) (A) (A) (A) (A) (A) (A) (A) (A)
                 (A) (A) (A) (A) (A) (A) (A) (A) (A) (A) (A) (A)
                 (A) (A) (A) (A) (A) (A) (A) (A) (A) (A) (A) (A)
                 (A) (A) (A) (A) (A) (A) (A) (A) (A) (A) (A) (A)
                 (A) (A) (A) (A) (A) (A) (A) (A) (A) (A) (A) (A)
                 (A) (A) (A) (A) (A) (A) (A) (A) (A) (A) (A) (A)
                 (A) (A) (A) (A) (A) (A) (A) (A) (A) (A) (A) (A)
                 (A) (A) (A) (A) (A) (A) (A) (A) (A) (A) (A) (A)
                 (A) (A) (A) (A) (A) (A) (A) (A) (A) (A) (A) (A)
                 (A) (A) (A) (A) (A) (A) (A) (A) (A) (A) (A) (A)
                 (A) (A) (A) (A) (A) (A) (A) (A) (A) (A) (A) (A)
                 (A) (A) (A) (A) (A) (A) (A) (A) (A) (A) (A) (A)
                 (A) (A) (A) (A) (A) (A) (A) (A) (A) (A) (A) (A)
                 (A) (A) (A) (A) (A) (A) (A) (A) (A) (A) (A) (A)
                 (A) (A) (A) (A) (A) (A) (A) (A) (A) (A) (A) (A)
                 (A) (A) (A) (A) (A) (A) (A) (A) (A) (A) (A) (A)
                 (A) (A) (A) (A) (A) (A) (A) (A) (A) (A) (A) (A)
                 (A) (A) (A) (A) (A) (A) (A) (A) (A) (A) (A) (A)
                 (A) (A) (A) (A) (A) (A) (A) (A) (A) (A) (A) (A)
                 (A) (A) (A) (A) (A) (A) (A) (A) (A) (A) (A) (A)
                 (A) (A) (A)
 The electronic state is 2-A.
 Alpha  occ. eigenvalues -- -101.09702 -19.02345 -19.01740 -19.00047 -14.20730
 Alpha  occ. eigenvalues --  -14.20614 -14.18836 -14.17680 -10.15628 -10.15243
 Alpha  occ. eigenvalues --  -10.14100 -10.12127 -10.11835 -10.11708 -10.11519
 Alpha  occ. eigenvalues --  -10.11027 -10.10566 -10.09746 -10.09584 -10.09543
 Alpha  occ. eigenvalues --  -10.08444 -10.08303 -10.08202 -10.08163 -10.07343
 Alpha  occ. eigenvalues --  -10.07332 -10.06970 -10.06350 -10.06114 -10.05903
 Alpha  occ. eigenvalues --  -10.05876 -10.05676 -10.05641 -10.05634 -10.05604
 Alpha  occ. eigenvalues --  -10.05282 -10.05182 -10.05137 -10.05131 -10.05038
 Alpha  occ. eigenvalues --  -10.04935 -10.04622 -10.04620 -10.04134 -10.04074
 Alpha  occ. eigenvalues --  -10.04032 -10.03876 -10.03668 -10.03573  -9.32661
 Alpha  occ. eigenvalues --   -7.03030  -7.02882  -7.02719  -4.00148  -3.98525
 Alpha  occ. eigenvalues --   -2.60661  -2.58242  -2.58141  -2.57339  -2.57210
 Alpha  occ. eigenvalues --   -2.56145  -1.07445  -1.06836  -1.03667  -0.95809
 Alpha  occ. eigenvalues --   -0.90992  -0.88437  -0.87462  -0.81778  -0.80911
 Alpha  occ. eigenvalues --   -0.80587  -0.79235  -0.78528  -0.77549  -0.76202
 Alpha  occ. eigenvalues --   -0.75798  -0.74474  -0.72744  -0.72567  -0.70854
 Alpha  occ. eigenvalues --   -0.70704  -0.70515  -0.70302  -0.69280  -0.67023
 Alpha  occ. eigenvalues --   -0.65725  -0.64894  -0.64689  -0.64637  -0.64350
 Alpha  occ. eigenvalues --   -0.63818  -0.63603  -0.61154  -0.60867  -0.60682
 Alpha  occ. eigenvalues --   -0.59234  -0.56989  -0.56735  -0.56515  -0.55895
 Alpha  occ. eigenvalues --   -0.55584  -0.54503  -0.52246  -0.51072  -0.50111
 Alpha  occ. eigenvalues --   -0.49946  -0.49557  -0.49352  -0.49245  -0.48098
 Alpha  occ. eigenvalues --   -0.47405  -0.47130  -0.46534  -0.46388  -0.45821
 Alpha  occ. eigenvalues --   -0.44355  -0.43789  -0.43223  -0.42960  -0.42662
 Alpha  occ. eigenvalues --   -0.42637  -0.42351  -0.42226  -0.41696  -0.41374
 Alpha  occ. eigenvalues --   -0.41297  -0.41080  -0.40566  -0.40289  -0.40190
 Alpha  occ. eigenvalues --   -0.40006  -0.39749  -0.39683  -0.39448  -0.39014
 Alpha  occ. eigenvalues --   -0.38373  -0.38073  -0.37955  -0.37870  -0.37180
 Alpha  occ. eigenvalues --   -0.36899  -0.36583  -0.36189  -0.35955  -0.35466
 Alpha  occ. eigenvalues --   -0.35298  -0.35195  -0.34827  -0.34598  -0.34567
 Alpha  occ. eigenvalues --   -0.34441  -0.34106  -0.33893  -0.33545  -0.33313
 Alpha  occ. eigenvalues --   -0.33150  -0.33073  -0.32969  -0.32542  -0.32321
 Alpha  occ. eigenvalues --   -0.32234  -0.31718  -0.31503  -0.31270  -0.30934
 Alpha  occ. eigenvalues --   -0.30674  -0.30396  -0.30354  -0.29875  -0.29833
 Alpha  occ. eigenvalues --   -0.29747  -0.29421  -0.29221  -0.28932  -0.28793
 Alpha  occ. eigenvalues --   -0.28166  -0.28008  -0.26480  -0.26248  -0.25962
 Alpha  occ. eigenvalues --   -0.25817  -0.24314  -0.24173  -0.23415  -0.23300
 Alpha  occ. eigenvalues --   -0.23089  -0.22896  -0.22726  -0.21239  -0.20845
 Alpha  occ. eigenvalues --   -0.20455  -0.19962  -0.19228  -0.18966  -0.18419
 Alpha  occ. eigenvalues --   -0.17683  -0.17258  -0.16492  -0.14098
 Alpha virt. eigenvalues --   -0.12420  -0.09513  -0.07603  -0.05012  -0.04280
 Alpha virt. eigenvalues --   -0.04003  -0.03804  -0.03520  -0.03275   0.00630
 Alpha virt. eigenvalues --    0.01350   0.01584   0.02076   0.02206   0.02882
 Alpha virt. eigenvalues --    0.03062   0.03423   0.03894   0.04469   0.04731
 Alpha virt. eigenvalues --    0.05402   0.05576   0.05718   0.06028   0.06437
 Alpha virt. eigenvalues --    0.06597   0.06845   0.06944   0.07222   0.07541
 Alpha virt. eigenvalues --    0.07845   0.08027   0.08184   0.08222   0.08616
 Alpha virt. eigenvalues --    0.08821   0.08885   0.09159   0.09673   0.09913
 Alpha virt. eigenvalues --    0.10049   0.10151   0.10351   0.10497   0.10805
 Alpha virt. eigenvalues --    0.10928   0.11015   0.11308   0.11405   0.11563
 Alpha virt. eigenvalues --    0.11669   0.11768   0.12149   0.12336   0.12459
 Alpha virt. eigenvalues --    0.12504   0.12877   0.13009   0.13386   0.13603
 Alpha virt. eigenvalues --    0.13742   0.13940   0.14003   0.14101   0.14514
 Alpha virt. eigenvalues --    0.14603   0.14780   0.15022   0.15094   0.15250
 Alpha virt. eigenvalues --    0.15363   0.15458   0.15723   0.15890   0.16203
 Alpha virt. eigenvalues --    0.16578   0.16708   0.16914   0.17240   0.17252
 Alpha virt. eigenvalues --    0.17484   0.17798   0.17996   0.18079   0.18211
 Alpha virt. eigenvalues --    0.18583   0.18923   0.19050   0.19442   0.19935
 Alpha virt. eigenvalues --    0.19987   0.20398   0.20513   0.20546   0.20758
 Alpha virt. eigenvalues --    0.20900   0.21161   0.21559   0.21774   0.22059
 Alpha virt. eigenvalues --    0.22196   0.22416   0.22516   0.22650   0.22754
 Alpha virt. eigenvalues --    0.23051   0.23110   0.23367   0.23391   0.23612
 Alpha virt. eigenvalues --    0.23625   0.24014   0.24441   0.24551   0.24806
 Alpha virt. eigenvalues --    0.24969   0.25107   0.25216   0.25536   0.25737
 Alpha virt. eigenvalues --    0.25828   0.26158   0.26294   0.26353   0.26525
 Alpha virt. eigenvalues --    0.26697   0.26984   0.27185   0.27290   0.27652
 Alpha virt. eigenvalues --    0.27771   0.27955   0.28303   0.28485   0.28526
 Alpha virt. eigenvalues --    0.28824   0.28950   0.29022   0.29239   0.29537
 Alpha virt. eigenvalues --    0.29739   0.29899   0.30251   0.30323   0.30456
 Alpha virt. eigenvalues --    0.30923   0.31005   0.31280   0.31443   0.31884
 Alpha virt. eigenvalues --    0.32020   0.32173   0.32456   0.32540   0.32822
 Alpha virt. eigenvalues --    0.33001   0.33260   0.33318   0.33699   0.33913
 Alpha virt. eigenvalues --    0.34087   0.34148   0.34286   0.34348   0.34630
 Alpha virt. eigenvalues --    0.34736   0.34877   0.34889   0.35125   0.35209
 Alpha virt. eigenvalues --    0.35629   0.35735   0.35885   0.35945   0.36221
 Alpha virt. eigenvalues --    0.36348   0.36530   0.36790   0.36901   0.37143
 Alpha virt. eigenvalues --    0.37416   0.37475   0.37840   0.37926   0.38117
 Alpha virt. eigenvalues --    0.38345   0.38419   0.38588   0.38680   0.38883
 Alpha virt. eigenvalues --    0.39019   0.39237   0.39466   0.39555   0.39648
 Alpha virt. eigenvalues --    0.39956   0.39998   0.40242   0.40332   0.40579
 Alpha virt. eigenvalues --    0.40733   0.40974   0.41037   0.41167   0.41357
 Alpha virt. eigenvalues --    0.41576   0.41837   0.41999   0.42062   0.42134
 Alpha virt. eigenvalues --    0.42528   0.42623   0.42716   0.43145   0.43396
 Alpha virt. eigenvalues --    0.43426   0.43621   0.43743   0.43850   0.43866
 Alpha virt. eigenvalues --    0.43943   0.44273   0.44363   0.44521   0.44615
 Alpha virt. eigenvalues --    0.44824   0.44993   0.45029   0.45067   0.45174
 Alpha virt. eigenvalues --    0.45317   0.45362   0.45592   0.45709   0.45906
 Alpha virt. eigenvalues --    0.46122   0.46197   0.46287   0.46729   0.46896
 Alpha virt. eigenvalues --    0.46941   0.47045   0.47492   0.47724   0.47772
 Alpha virt. eigenvalues --    0.48186   0.48410   0.48422   0.48674   0.48831
 Alpha virt. eigenvalues --    0.49159   0.49285   0.49541   0.49673   0.49852
 Alpha virt. eigenvalues --    0.49956   0.50164   0.50409   0.50547   0.50935
 Alpha virt. eigenvalues --    0.51151   0.51432   0.51520   0.52034   0.52294
 Alpha virt. eigenvalues --    0.52416   0.52672   0.52752   0.53014   0.53398
 Alpha virt. eigenvalues --    0.53827   0.54118   0.54285   0.54857   0.55121
 Alpha virt. eigenvalues --    0.55230   0.55535   0.55807   0.56136   0.56378
 Alpha virt. eigenvalues --    0.56810   0.57054   0.57255   0.57503   0.58107
 Alpha virt. eigenvalues --    0.58403   0.58530   0.58677   0.59643   0.59721
 Alpha virt. eigenvalues --    0.59821   0.60057   0.60089   0.60663   0.61065
 Alpha virt. eigenvalues --    0.61169   0.61430   0.61591   0.61832   0.62029
 Alpha virt. eigenvalues --    0.62457   0.62605   0.63154   0.63220   0.63646
 Alpha virt. eigenvalues --    0.63871   0.64201   0.64426   0.64707   0.64955
 Alpha virt. eigenvalues --    0.65125   0.65443   0.65527   0.65552   0.65981
 Alpha virt. eigenvalues --    0.66115   0.66486   0.66895   0.67003   0.67270
 Alpha virt. eigenvalues --    0.67402   0.67749   0.67992   0.68037   0.68669
 Alpha virt. eigenvalues --    0.68738   0.68993   0.69115   0.69603   0.69832
 Alpha virt. eigenvalues --    0.69861   0.70131   0.70581   0.70859   0.70955
 Alpha virt. eigenvalues --    0.71309   0.71603   0.71779   0.72058   0.72402
 Alpha virt. eigenvalues --    0.72470   0.72873   0.73025   0.73143   0.73473
 Alpha virt. eigenvalues --    0.73582   0.73969   0.74522   0.74625   0.74717
 Alpha virt. eigenvalues --    0.75341   0.75673   0.75834   0.75959   0.76226
 Alpha virt. eigenvalues --    0.76321   0.76753   0.76773   0.77314   0.77422
 Alpha virt. eigenvalues --    0.77709   0.78140   0.78302   0.78471   0.79045
 Alpha virt. eigenvalues --    0.79121   0.79384   0.79812   0.80025   0.80124
 Alpha virt. eigenvalues --    0.80410   0.80814   0.80973   0.81218   0.81522
 Alpha virt. eigenvalues --    0.81685   0.82032   0.82301   0.82677   0.82857
 Alpha virt. eigenvalues --    0.83093   0.83516   0.83901   0.84072   0.84266
 Alpha virt. eigenvalues --    0.84911   0.85001   0.85559   0.85710   0.85986
 Alpha virt. eigenvalues --    0.86134   0.86574   0.86756   0.86982   0.87230
 Alpha virt. eigenvalues --    0.87451   0.88021   0.88348   0.88605   0.88704
 Alpha virt. eigenvalues --    0.89208   0.89825   0.90008   0.90088   0.90285
 Alpha virt. eigenvalues --    0.90882   0.91048   0.91543   0.91912   0.92060
 Alpha virt. eigenvalues --    0.92439   0.92495   0.92819   0.93563   0.93768
 Alpha virt. eigenvalues --    0.94077   0.94471   0.94721   0.95300   0.95821
 Alpha virt. eigenvalues --    0.96221   0.96638   0.96730   0.96878   0.97142
 Alpha virt. eigenvalues --    0.97383   0.97966   0.98118   0.98555   0.98851
 Alpha virt. eigenvalues --    0.99384   0.99695   1.00050   1.00985   1.01242
 Alpha virt. eigenvalues --    1.01492   1.01850   1.02121   1.02436   1.02941
 Alpha virt. eigenvalues --    1.03593   1.03656   1.03953   1.04358   1.04868
 Alpha virt. eigenvalues --    1.05024   1.05184   1.05274   1.05822   1.05992
 Alpha virt. eigenvalues --    1.06506   1.06804   1.07513   1.07673   1.07825
 Alpha virt. eigenvalues --    1.08104   1.08428   1.08863   1.08991   1.09324
 Alpha virt. eigenvalues --    1.09530   1.09972   1.10390   1.10693   1.10931
 Alpha virt. eigenvalues --    1.11212   1.11415   1.11536   1.12055   1.12485
 Alpha virt. eigenvalues --    1.12789   1.12932   1.13501   1.13750   1.14160
 Alpha virt. eigenvalues --    1.14411   1.14694   1.15175   1.15314   1.15623
 Alpha virt. eigenvalues --    1.16214   1.16500   1.16874   1.17055   1.17573
 Alpha virt. eigenvalues --    1.17822   1.18336   1.18444   1.18679   1.19106
 Alpha virt. eigenvalues --    1.19263   1.19421   1.19730   1.20242   1.20438
 Alpha virt. eigenvalues --    1.20980   1.21261   1.21725   1.22025   1.22361
 Alpha virt. eigenvalues --    1.22970   1.23041   1.23279   1.23443   1.23664
 Alpha virt. eigenvalues --    1.24067   1.24477   1.24634   1.24844   1.25015
 Alpha virt. eigenvalues --    1.25266   1.25603   1.25836   1.26053   1.26502
 Alpha virt. eigenvalues --    1.27011   1.27108   1.27493   1.28231   1.28511
 Alpha virt. eigenvalues --    1.28737   1.29031   1.29133   1.29679   1.29858
 Alpha virt. eigenvalues --    1.30456   1.30581   1.31000   1.31524   1.32024
 Alpha virt. eigenvalues --    1.32228   1.32534   1.32772   1.33198   1.33947
 Alpha virt. eigenvalues --    1.34356   1.34931   1.35280   1.35384   1.35626
 Alpha virt. eigenvalues --    1.35914   1.36058   1.36436   1.37140   1.37530
 Alpha virt. eigenvalues --    1.37819   1.38378   1.38806   1.39556   1.39884
 Alpha virt. eigenvalues --    1.40306   1.40620   1.40936   1.41618   1.42112
 Alpha virt. eigenvalues --    1.42244   1.42662   1.43178   1.43496   1.43967
 Alpha virt. eigenvalues --    1.44356   1.44628   1.45313   1.45516   1.45692
 Alpha virt. eigenvalues --    1.46056   1.46561   1.46774   1.46874   1.47344
 Alpha virt. eigenvalues --    1.47772   1.48256   1.48368   1.48754   1.49050
 Alpha virt. eigenvalues --    1.49228   1.49424   1.49741   1.49962   1.50029
 Alpha virt. eigenvalues --    1.50617   1.51335   1.51703   1.51848   1.52149
 Alpha virt. eigenvalues --    1.52571   1.52927   1.53384   1.53672   1.53967
 Alpha virt. eigenvalues --    1.54116   1.54157   1.54345   1.54932   1.55074
 Alpha virt. eigenvalues --    1.55422   1.55802   1.56178   1.56525   1.56805
 Alpha virt. eigenvalues --    1.57058   1.57397   1.57630   1.57823   1.57894
 Alpha virt. eigenvalues --    1.58314   1.58362   1.58637   1.58961   1.59139
 Alpha virt. eigenvalues --    1.59441   1.59607   1.60257   1.60480   1.60621
 Alpha virt. eigenvalues --    1.61086   1.61146   1.61475   1.61563   1.61843
 Alpha virt. eigenvalues --    1.62188   1.62321   1.62748   1.62889   1.63184
 Alpha virt. eigenvalues --    1.63454   1.63533   1.64002   1.64050   1.64615
 Alpha virt. eigenvalues --    1.64901   1.65374   1.65479   1.65865   1.66128
 Alpha virt. eigenvalues --    1.66522   1.66976   1.67485   1.67786   1.68004
 Alpha virt. eigenvalues --    1.68401   1.68639   1.68978   1.69132   1.69347
 Alpha virt. eigenvalues --    1.69537   1.69779   1.69874   1.70139   1.70553
 Alpha virt. eigenvalues --    1.70876   1.71185   1.71592   1.71896   1.72070
 Alpha virt. eigenvalues --    1.72445   1.72949   1.73359   1.73664   1.73919
 Alpha virt. eigenvalues --    1.74279   1.74514   1.74907   1.75406   1.75696
 Alpha virt. eigenvalues --    1.75860   1.76606   1.76931   1.77558   1.78185
 Alpha virt. eigenvalues --    1.78495   1.79014   1.79457   1.79811   1.80149
 Alpha virt. eigenvalues --    1.80371   1.80830   1.81912   1.82071   1.82316
 Alpha virt. eigenvalues --    1.82794   1.82960   1.83901   1.84611   1.84908
 Alpha virt. eigenvalues --    1.85241   1.85511   1.85686   1.86024   1.86425
 Alpha virt. eigenvalues --    1.86953   1.87078   1.87733   1.88105   1.88345
 Alpha virt. eigenvalues --    1.88673   1.88807   1.89579   1.89909   1.90229
 Alpha virt. eigenvalues --    1.90567   1.90802   1.91130   1.91397   1.91454
 Alpha virt. eigenvalues --    1.91975   1.92188   1.92602   1.92802   1.93368
 Alpha virt. eigenvalues --    1.93521   1.93643   1.94377   1.94697   1.94855
 Alpha virt. eigenvalues --    1.95052   1.95788   1.96194   1.96449   1.96725
 Alpha virt. eigenvalues --    1.97224   1.97529   1.98406   1.98738   1.98873
 Alpha virt. eigenvalues --    1.99000   1.99246   1.99765   1.99873   2.00226
 Alpha virt. eigenvalues --    2.00689   2.01771   2.01965   2.02626   2.02682
 Alpha virt. eigenvalues --    2.02962   2.03608   2.03864   2.04165   2.04417
 Alpha virt. eigenvalues --    2.04765   2.05282   2.05402   2.05745   2.06237
 Alpha virt. eigenvalues --    2.06750   2.06972   2.07303   2.07782   2.08164
 Alpha virt. eigenvalues --    2.08388   2.08929   2.09265   2.09399   2.10000
 Alpha virt. eigenvalues --    2.10174   2.10553   2.10917   2.11509   2.11709
 Alpha virt. eigenvalues --    2.11884   2.12393   2.13004   2.13170   2.13328
 Alpha virt. eigenvalues --    2.13754   2.14193   2.14702   2.15002   2.15573
 Alpha virt. eigenvalues --    2.15876   2.16147   2.16488   2.17169   2.17431
 Alpha virt. eigenvalues --    2.17801   2.18008   2.18264   2.18370   2.19067
 Alpha virt. eigenvalues --    2.19316   2.19848   2.20147   2.20339   2.20456
 Alpha virt. eigenvalues --    2.20899   2.21256   2.21669   2.21888   2.22350
 Alpha virt. eigenvalues --    2.22694   2.22881   2.23281   2.23448   2.24042
 Alpha virt. eigenvalues --    2.24268   2.24751   2.24934   2.25354   2.25879
 Alpha virt. eigenvalues --    2.26197   2.26349   2.26776   2.27563   2.27848
 Alpha virt. eigenvalues --    2.28029   2.28183   2.28795   2.29188   2.29329
 Alpha virt. eigenvalues --    2.29376   2.29991   2.30700   2.30872   2.31177
 Alpha virt. eigenvalues --    2.31348   2.31600   2.31993   2.32557   2.32799
 Alpha virt. eigenvalues --    2.33112   2.33629   2.33858   2.34078   2.34532
 Alpha virt. eigenvalues --    2.34819   2.35411   2.35663   2.35802   2.36770
 Alpha virt. eigenvalues --    2.36938   2.37244   2.37598   2.38089   2.38274
 Alpha virt. eigenvalues --    2.38738   2.39101   2.39506   2.39888   2.40598
 Alpha virt. eigenvalues --    2.40794   2.41025   2.41129   2.41351   2.41517
 Alpha virt. eigenvalues --    2.41890   2.42092   2.42681   2.42968   2.43153
 Alpha virt. eigenvalues --    2.43605   2.43745   2.44725   2.45070   2.45283
 Alpha virt. eigenvalues --    2.45752   2.46242   2.46387   2.47109   2.47657
 Alpha virt. eigenvalues --    2.47781   2.48566   2.49040   2.49320   2.49712
 Alpha virt. eigenvalues --    2.50123   2.50770   2.51077   2.51213   2.51529
 Alpha virt. eigenvalues --    2.52238   2.53012   2.53236   2.53441   2.53707
 Alpha virt. eigenvalues --    2.53908   2.54454   2.54557   2.55015   2.55388
 Alpha virt. eigenvalues --    2.56116   2.56288   2.56405   2.56903   2.57268
 Alpha virt. eigenvalues --    2.57376   2.57663   2.57951   2.58295   2.58513
 Alpha virt. eigenvalues --    2.58769   2.59232   2.59695   2.59719   2.59944
 Alpha virt. eigenvalues --    2.60319   2.60643   2.61101   2.61295   2.61413
 Alpha virt. eigenvalues --    2.61785   2.61966   2.62284   2.62393   2.62463
 Alpha virt. eigenvalues --    2.62739   2.63166   2.63630   2.63957   2.64379
 Alpha virt. eigenvalues --    2.64422   2.64702   2.65116   2.65538   2.65860
 Alpha virt. eigenvalues --    2.65929   2.66292   2.66399   2.66493   2.67313
 Alpha virt. eigenvalues --    2.67639   2.67922   2.68437   2.68584   2.68831
 Alpha virt. eigenvalues --    2.69342   2.69569   2.69723   2.70266   2.70401
 Alpha virt. eigenvalues --    2.70720   2.70948   2.71091   2.71241   2.71474
 Alpha virt. eigenvalues --    2.72180   2.72480   2.72657   2.72887   2.73067
 Alpha virt. eigenvalues --    2.73400   2.73793   2.74152   2.74580   2.74881
 Alpha virt. eigenvalues --    2.75240   2.75476   2.75762   2.76080   2.76281
 Alpha virt. eigenvalues --    2.76431   2.76924   2.77290   2.77486   2.77912
 Alpha virt. eigenvalues --    2.78395   2.78515   2.78866   2.79285   2.79630
 Alpha virt. eigenvalues --    2.79923   2.80084   2.80162   2.80519   2.80782
 Alpha virt. eigenvalues --    2.81135   2.81879   2.82132   2.82532   2.82748
 Alpha virt. eigenvalues --    2.83113   2.83359   2.84030   2.84250   2.84438
 Alpha virt. eigenvalues --    2.84662   2.85164   2.85556   2.85709   2.85936
 Alpha virt. eigenvalues --    2.85996   2.86379   2.86458   2.87075   2.87113
 Alpha virt. eigenvalues --    2.87328   2.87880   2.88281   2.88667   2.88817
 Alpha virt. eigenvalues --    2.88940   2.89224   2.89462   2.90025   2.90288
 Alpha virt. eigenvalues --    2.90711   2.90842   2.91120   2.91291   2.91849
 Alpha virt. eigenvalues --    2.92203   2.92310   2.92473   2.92694   2.92897
 Alpha virt. eigenvalues --    2.93427   2.93623   2.93821   2.94063   2.94465
 Alpha virt. eigenvalues --    2.94609   2.94945   2.95757   2.96107   2.96299
 Alpha virt. eigenvalues --    2.96962   2.97389   2.97766   2.98312   2.98592
 Alpha virt. eigenvalues --    2.98762   2.98830   2.99425   2.99849   3.00297
 Alpha virt. eigenvalues --    3.00638   3.00753   3.01457   3.02234   3.02353
 Alpha virt. eigenvalues --    3.02846   3.03015   3.03166   3.03461   3.03782
 Alpha virt. eigenvalues --    3.04322   3.04448   3.05015   3.05511   3.05790
 Alpha virt. eigenvalues --    3.05910   3.06565   3.06634   3.06989   3.07552
 Alpha virt. eigenvalues --    3.07855   3.08145   3.08493   3.08911   3.09452
 Alpha virt. eigenvalues --    3.09637   3.09911   3.10099   3.10475   3.10820
 Alpha virt. eigenvalues --    3.11176   3.11547   3.11686   3.12244   3.12686
 Alpha virt. eigenvalues --    3.12813   3.12995   3.13776   3.13799   3.14023
 Alpha virt. eigenvalues --    3.14493   3.14780   3.15007   3.15729   3.16095
 Alpha virt. eigenvalues --    3.16192   3.16659   3.16700   3.16971   3.17680
 Alpha virt. eigenvalues --    3.17792   3.18076   3.18560   3.18607   3.19069
 Alpha virt. eigenvalues --    3.19221   3.19763   3.20109   3.20351   3.20557
 Alpha virt. eigenvalues --    3.20735   3.21354   3.21782   3.22150   3.22410
 Alpha virt. eigenvalues --    3.22464   3.22701   3.23001   3.23147   3.23498
 Alpha virt. eigenvalues --    3.23730   3.24070   3.24267   3.24506   3.24957
 Alpha virt. eigenvalues --    3.25238   3.25329   3.25874   3.26011   3.26177
 Alpha virt. eigenvalues --    3.26276   3.26472   3.26857   3.27051   3.27507
 Alpha virt. eigenvalues --    3.27807   3.28200   3.28292   3.28501   3.28978
 Alpha virt. eigenvalues --    3.29228   3.29575   3.29714   3.30179   3.30290
 Alpha virt. eigenvalues --    3.30684   3.31189   3.31587   3.31648   3.31852
 Alpha virt. eigenvalues --    3.32139   3.32207   3.32865   3.32994   3.33048
 Alpha virt. eigenvalues --    3.33444   3.33579   3.33892   3.34033   3.34231
 Alpha virt. eigenvalues --    3.34701   3.34935   3.35024   3.35678   3.36053
 Alpha virt. eigenvalues --    3.36113   3.36370   3.36486   3.36751   3.37109
 Alpha virt. eigenvalues --    3.37264   3.37804   3.37945   3.38470   3.38750
 Alpha virt. eigenvalues --    3.39100   3.39298   3.39365   3.39657   3.39722
 Alpha virt. eigenvalues --    3.39826   3.40179   3.40527   3.40813   3.41181
 Alpha virt. eigenvalues --    3.41413   3.41546   3.41830   3.42060   3.42205
 Alpha virt. eigenvalues --    3.42582   3.42788   3.43112   3.43269   3.43720
 Alpha virt. eigenvalues --    3.43902   3.44034   3.44315   3.44677   3.44924
 Alpha virt. eigenvalues --    3.45051   3.45289   3.46070   3.46182   3.46397
 Alpha virt. eigenvalues --    3.46740   3.46942   3.47313   3.47662   3.47901
 Alpha virt. eigenvalues --    3.48142   3.48258   3.48625   3.48749   3.48987
 Alpha virt. eigenvalues --    3.49290   3.49479   3.49996   3.50128   3.50381
 Alpha virt. eigenvalues --    3.50871   3.50981   3.51265   3.51725   3.52506
 Alpha virt. eigenvalues --    3.52585   3.52831   3.53185   3.53407   3.53906
 Alpha virt. eigenvalues --    3.54108   3.54371   3.54546   3.54635   3.54924
 Alpha virt. eigenvalues --    3.55399   3.55526   3.55859   3.56680   3.56826
 Alpha virt. eigenvalues --    3.57029   3.57326   3.57537   3.58106   3.58334
 Alpha virt. eigenvalues --    3.58469   3.59118   3.59448   3.59602   3.59854
 Alpha virt. eigenvalues --    3.60373   3.60395   3.60613   3.61278   3.61495
 Alpha virt. eigenvalues --    3.62407   3.62729   3.63357   3.63598   3.65023
 Alpha virt. eigenvalues --    3.65148   3.65360   3.65832   3.65982   3.66339
 Alpha virt. eigenvalues --    3.66558   3.66979   3.67490   3.68017   3.68384
 Alpha virt. eigenvalues --    3.68527   3.69283   3.69763   3.70073   3.70631
 Alpha virt. eigenvalues --    3.71162   3.71548   3.71800   3.72058   3.72518
 Alpha virt. eigenvalues --    3.72870   3.73460   3.73567   3.73993   3.74763
 Alpha virt. eigenvalues --    3.75515   3.75814   3.76797   3.77266   3.77433
 Alpha virt. eigenvalues --    3.77641   3.78073   3.78457   3.78546   3.79230
 Alpha virt. eigenvalues --    3.79720   3.80170   3.80597   3.80774   3.81208
 Alpha virt. eigenvalues --    3.81893   3.82528   3.82680   3.83205   3.83701
 Alpha virt. eigenvalues --    3.83807   3.84476   3.84680   3.84989   3.85261
 Alpha virt. eigenvalues --    3.85562   3.85947   3.87340   3.88085   3.88311
 Alpha virt. eigenvalues --    3.88949   3.89424   3.90686   3.91004   3.91267
 Alpha virt. eigenvalues --    3.91793   3.92173   3.93660   3.94011   3.94446
 Alpha virt. eigenvalues --    3.95598   3.96026   3.96153   3.96621   3.96662
 Alpha virt. eigenvalues --    3.97822   3.97996   3.98181   3.99346   3.99883
 Alpha virt. eigenvalues --    4.00281   4.00447   4.00911   4.00991   4.01746
 Alpha virt. eigenvalues --    4.02400   4.02909   4.03077   4.03594   4.04136
 Alpha virt. eigenvalues --    4.04686   4.05519   4.06128   4.06676   4.06759
 Alpha virt. eigenvalues --    4.07237   4.07961   4.08246   4.08868   4.09919
 Alpha virt. eigenvalues --    4.10413   4.11352   4.11565   4.11912   4.12260
 Alpha virt. eigenvalues --    4.12956   4.13263   4.13987   4.14173   4.14703
 Alpha virt. eigenvalues --    4.14978   4.15436   4.15587   4.16160   4.16646
 Alpha virt. eigenvalues --    4.16967   4.17143   4.17820   4.18143   4.18187
 Alpha virt. eigenvalues --    4.18710   4.19219   4.19318   4.19623   4.20096
 Alpha virt. eigenvalues --    4.20282   4.20618   4.21330   4.21891   4.22427
 Alpha virt. eigenvalues --    4.22616   4.23373   4.23467   4.23781   4.24361
 Alpha virt. eigenvalues --    4.24869   4.25115   4.25552   4.25624   4.26651
 Alpha virt. eigenvalues --    4.26859   4.27314   4.27582   4.27811   4.28077
 Alpha virt. eigenvalues --    4.28920   4.28968   4.29425   4.30311   4.31078
 Alpha virt. eigenvalues --    4.31703   4.32303   4.32900   4.33359   4.33458
 Alpha virt. eigenvalues --    4.33786   4.34802   4.35188   4.35306   4.35859
 Alpha virt. eigenvalues --    4.36101   4.36625   4.37635   4.38139   4.38553
 Alpha virt. eigenvalues --    4.38692   4.39021   4.39990   4.40338   4.40885
 Alpha virt. eigenvalues --    4.41474   4.41791   4.42105   4.42527   4.43380
 Alpha virt. eigenvalues --    4.43927   4.43972   4.44531   4.45029   4.45704
 Alpha virt. eigenvalues --    4.46440   4.46958   4.48349   4.48779   4.49211
 Alpha virt. eigenvalues --    4.49958   4.50224   4.50624   4.50896   4.51670
 Alpha virt. eigenvalues --    4.51819   4.52842   4.53333   4.53815   4.54436
 Alpha virt. eigenvalues --    4.55095   4.55379   4.56910   4.57424   4.58929
 Alpha virt. eigenvalues --    4.59896   4.60424   4.61140   4.62351   4.64140
 Alpha virt. eigenvalues --    4.64602   4.65138   4.65912   4.66660   4.67361
 Alpha virt. eigenvalues --    4.68293   4.68979   4.70761   4.72668   4.74466
 Alpha virt. eigenvalues --    4.75117   4.75477   4.75869   4.76742   4.77504
 Alpha virt. eigenvalues --    4.77717   4.78228   4.78491   4.78690   4.79145
 Alpha virt. eigenvalues --    4.79748   4.81665   4.81883   4.83708   4.84013
 Alpha virt. eigenvalues --    4.85637   4.86147   4.86773   4.87413   4.87819
 Alpha virt. eigenvalues --    4.88740   4.89764   4.90501   4.93637   4.94892
 Alpha virt. eigenvalues --    4.96042   4.96951   4.97307   4.98603   4.98984
 Alpha virt. eigenvalues --    4.99244   5.01090   5.01388   5.04794   5.04862
 Alpha virt. eigenvalues --    5.05277   5.07016   5.07632   5.08169   5.08968
[...]
    35 H(1)   Bbb    -0.0005    -0.256    -0.091    -0.085  0.5208  0.4118  0.7478
              Bcc     0.0011     0.600     0.214     0.200  0.7168 -0.6867 -0.1211
 
              Baa    -0.0007    -0.392    -0.140    -0.131  0.2432  0.9384 -0.2454
    36 H(1)   Bbb    -0.0004    -0.217    -0.077    -0.072  0.1516  0.2131  0.9652
              Bcc     0.0011     0.609     0.217     0.203  0.9580 -0.2720 -0.0905
 
              Baa    -0.0019    -0.258    -0.092    -0.086  0.1515  0.9047 -0.3981
    37 C(13)  Bbb    -0.0010    -0.138    -0.049    -0.046  0.5212  0.2691  0.8099
              Bcc     0.0030     0.396     0.141     0.132  0.8398 -0.3302 -0.4308
 
              Baa    -0.0013    -0.675    -0.241    -0.225  0.6246  0.6794 -0.3852
    38 H(1)   Bbb    -0.0010    -0.515    -0.184    -0.172  0.5740 -0.0650  0.8162
              Bcc     0.0022     1.190     0.425     0.397 -0.5295  0.7309  0.4306
 
              Baa    -0.0056    -0.746    -0.266    -0.249  0.3451  0.7187 -0.6036
    39 C(13)  Bbb    -0.0041    -0.550    -0.196    -0.183  0.0168  0.6383  0.7696
              Bcc     0.0097     1.296     0.462     0.432  0.9384 -0.2757  0.2082
 
              Baa    -0.0031    -1.647    -0.588    -0.549  0.4598  0.8834  0.0911
    40 H(1)   Bbb    -0.0023    -1.238    -0.442    -0.413 -0.3342  0.0771  0.9393
              Bcc     0.0054     2.884     1.029     0.962  0.8228 -0.4623  0.3307
 
              Baa    -0.0160     1.157     0.413     0.386  0.1598 -0.6078  0.7778
    41 O(17)  Bbb    -0.0095     0.691     0.247     0.230  0.6104 -0.5584 -0.5618
              Bcc     0.0255    -1.848    -0.659    -0.616  0.7758  0.5646  0.2818
 
              Baa    -0.0195     1.410     0.503     0.470 -0.2984 -0.4286  0.8528
    42 O(17)  Bbb    -0.0149     1.082     0.386     0.361  0.9534 -0.1749  0.2457
              Bcc     0.0344    -2.491    -0.889    -0.831  0.0438  0.8864  0.4608
 
              Baa    -0.5613    26.809     9.566     8.943 -0.3138 -0.6245  0.7152
    43 Ni(61) Bbb     0.1274    -6.087    -2.172    -2.030  0.4590  0.5596  0.6901
              Bcc     0.4339   -20.723    -7.394    -6.912  0.8312 -0.5448 -0.1111
 
              Baa    -0.0953    -4.987    -1.780    -1.664 -0.2189 -0.3649  0.9049
    44 Cl(35) Bbb    -0.0637    -3.336    -1.190    -1.113  0.5548  0.7164  0.4231
              Bcc     0.1590     8.323     2.970     2.776  0.8026 -0.5947 -0.0457
 
              Baa    -0.0010    -0.128    -0.046    -0.043  0.4056  0.9067  0.1157
    45 C(13)  Bbb    -0.0006    -0.076    -0.027    -0.025  0.5222 -0.3337  0.7848
              Bcc     0.0015     0.204     0.073     0.068  0.7502 -0.2579 -0.6088
 
              Baa    -0.0007    -0.097    -0.035    -0.032  0.3673  0.5905  0.7186
    46 C(13)  Bbb    -0.0006    -0.075    -0.027    -0.025 -0.2411  0.8067 -0.5396
              Bcc     0.0013     0.171     0.061     0.057  0.8983 -0.0249 -0.4386
 
              Baa    -0.0011    -0.571    -0.204    -0.190  0.1229  0.7883  0.6030
    47 H(1)   Bbb    -0.0009    -0.490    -0.175    -0.164  0.4040 -0.5947  0.6951
              Bcc     0.0020     1.061     0.379     0.354  0.9064  0.1582 -0.3916
 
              Baa    -0.0005    -0.274    -0.098    -0.091  0.1578  0.8673  0.4722
    48 H(1)   Bbb    -0.0005    -0.255    -0.091    -0.085  0.2683 -0.4979  0.8247
              Bcc     0.0010     0.529     0.189     0.176  0.9503 -0.0035 -0.3112
 
              Baa    -0.0004    -0.237    -0.085    -0.079  0.2804  0.7917  0.5427
    49 H(1)   Bbb    -0.0004    -0.217    -0.077    -0.072  0.4498 -0.6078  0.6544
              Bcc     0.0009     0.454     0.162     0.151  0.8480  0.0606 -0.5265
 
              Baa    -0.0004    -0.058    -0.021    -0.019  0.1553  0.8901 -0.4284
    50 C(13)  Bbb    -0.0003    -0.044    -0.016    -0.015  0.6874  0.2141  0.6940
              Bcc     0.0008     0.102     0.037     0.034  0.7095 -0.4023 -0.5786
 
              Baa    -0.0004    -0.189    -0.067    -0.063  0.3016  0.8566 -0.4186
    51 H(1)   Bbb    -0.0003    -0.171    -0.061    -0.057  0.6622  0.1277  0.7384
              Bcc     0.0007     0.361     0.129     0.120  0.6860 -0.4999 -0.5287
 
              Baa    -0.0003    -0.150    -0.054    -0.050  0.5340  0.7753  0.3372
    52 H(1)   Bbb    -0.0003    -0.140    -0.050    -0.047  0.3616 -0.5700  0.7378
              Bcc     0.0005     0.290     0.104     0.097  0.7642 -0.2721 -0.5847
 
              Baa    -0.0004    -0.187    -0.067    -0.062  0.4239  0.9038  0.0580
    53 H(1)   Bbb    -0.0003    -0.157    -0.056    -0.052  0.3292 -0.2134  0.9198
              Bcc     0.0006     0.344     0.123     0.115  0.8438 -0.3708 -0.3880
 
              Baa    -0.0008    -0.111    -0.040    -0.037  0.1738  0.9811 -0.0855
    54 C(13)  Bbb    -0.0006    -0.080    -0.029    -0.027  0.7625 -0.0791  0.6421
              Bcc     0.0014     0.191     0.068     0.064 -0.6232  0.1768  0.7618
 
              Baa    -0.0015    -0.785    -0.280    -0.262  0.1151  0.9865 -0.1164
    55 H(1)   Bbb    -0.0012    -0.622    -0.222    -0.207  0.8297 -0.0311  0.5573
              Bcc     0.0026     1.406     0.502     0.469 -0.5462  0.1607  0.8221
 
              Baa    -0.0005    -0.285    -0.102    -0.095  0.2235  0.9747  0.0003
    56 H(1)   Bbb    -0.0004    -0.231    -0.083    -0.077  0.7528 -0.1728  0.6351
              Bcc     0.0010     0.516     0.184     0.172 -0.6191  0.1417  0.7724
 
              Baa    -0.0007    -0.397    -0.142    -0.132  0.4583  0.8707 -0.1787
    57 H(1)   Bbb    -0.0005    -0.293    -0.105    -0.098  0.7304 -0.2544  0.6339
              Bcc     0.0013     0.690     0.246     0.230 -0.5065  0.4210  0.7525
 
              Baa    -0.0028    -0.372    -0.133    -0.124 -0.1029 -0.5334  0.8396
    58 C(13)  Bbb    -0.0018    -0.237    -0.085    -0.079 -0.4493  0.7780  0.4392
              Bcc     0.0045     0.609     0.217     0.203  0.8874  0.3320  0.3197
 
              Baa    -0.0016    -0.208    -0.074    -0.069  0.2006 -0.4336  0.8785
    59 C(13)  Bbb    -0.0014    -0.187    -0.067    -0.062 -0.3686  0.7974  0.4778
              Bcc     0.0029     0.395     0.141     0.132  0.9077  0.4197 -0.0001
 
              Baa    -0.0023    -1.248    -0.445    -0.416  0.3414 -0.2171  0.9145
    60 H(1)   Bbb    -0.0021    -1.116    -0.398    -0.372 -0.5315  0.7579  0.3783
              Bcc     0.0044     2.364     0.844     0.789  0.7752  0.6153 -0.1434
 
              Baa    -0.0011    -0.582    -0.208    -0.194 -0.3849  0.7925 -0.4732
    61 H(1)   Bbb    -0.0010    -0.541    -0.193    -0.180 -0.0059  0.5105  0.8598
              Bcc     0.0021     1.123     0.401     0.375  0.9230  0.3337 -0.1918
 
              Baa    -0.0009    -0.484    -0.173    -0.162  0.1534 -0.3947  0.9059
    62 H(1)   Bbb    -0.0008    -0.444    -0.159    -0.148 -0.4928  0.7641  0.4164
              Bcc     0.0017     0.929     0.331     0.310  0.8565  0.5103  0.0773
 
              Baa    -0.0023    -0.302    -0.108    -0.101 -0.0321  0.8987 -0.4373
    63 C(13)  Bbb    -0.0018    -0.239    -0.085    -0.080 -0.6289  0.3219  0.7078
              Bcc     0.0040     0.541     0.193     0.181  0.7769  0.2977  0.5548
 
              Baa    -0.0019    -1.016    -0.362    -0.339  0.3173  0.8834 -0.3447
    64 H(1)   Bbb    -0.0015    -0.812    -0.290    -0.271 -0.6220  0.4683  0.6275
              Bcc     0.0034     1.827     0.652     0.610  0.7158  0.0153  0.6981
 
              Baa    -0.0045    -2.426    -0.866    -0.809  0.1361  0.7017 -0.6993
    65 H(1)   Bbb    -0.0034    -1.839    -0.656    -0.613  0.7190 -0.5556 -0.4175
              Bcc     0.0080     4.264     1.522     1.422  0.6815  0.4460  0.5802
 
              Baa    -0.0012    -0.636    -0.227    -0.212  0.0950  0.7602 -0.6428
    66 H(1)   Bbb    -0.0010    -0.532    -0.190    -0.177  0.6522 -0.5353 -0.5367
              Bcc     0.0022     1.168     0.417     0.390  0.7521  0.3682  0.5466
 
              Baa    -0.0008    -0.113    -0.040    -0.038  0.0747  0.9690 -0.2355
    67 C(13)  Bbb    -0.0007    -0.100    -0.036    -0.033 -0.3065  0.2470  0.9192
              Bcc     0.0016     0.213     0.076     0.071  0.9489  0.0035  0.3155
 
              Baa    -0.0007    -0.391    -0.139    -0.130  0.2754  0.9143 -0.2970
    68 H(1)   Bbb    -0.0007    -0.348    -0.124    -0.116 -0.3225  0.3789  0.8674
              Bcc     0.0014     0.739     0.264     0.246  0.9056 -0.1431  0.3992
 
              Baa    -0.0006    -0.303    -0.108    -0.101  0.1102  0.7487 -0.6537
    69 H(1)   Bbb    -0.0005    -0.280    -0.100    -0.093 -0.3450  0.6456  0.6813
              Bcc     0.0011     0.583     0.208     0.195  0.9321  0.1504  0.3295
 
              Baa    -0.0007    -0.356    -0.127    -0.119  0.0789  0.8888 -0.4514
    70 H(1)   Bbb    -0.0006    -0.308    -0.110    -0.103 -0.0985  0.4576  0.8837
              Bcc     0.0012     0.664     0.237     0.222  0.9920 -0.0252  0.1236
 
              Baa    -0.0007    -0.088    -0.031    -0.029  0.0777  0.8754  0.4772
    71 C(13)  Bbb     0.0000     0.002     0.001     0.001  0.3852 -0.4678  0.7955
              Bcc     0.0006     0.086     0.031     0.029  0.9196  0.1220 -0.3735
 
              Baa    -0.0009    -0.125    -0.045    -0.042 -0.3490  0.4607  0.8161
    72 C(13)  Bbb    -0.0001    -0.017    -0.006    -0.006 -0.4457  0.6845 -0.5770
              Bcc     0.0011     0.142     0.051     0.047  0.8244  0.5651  0.0336
 
              Baa    -0.0006    -0.074    -0.027    -0.025 -0.3144  0.7096  0.6305
    73 C(13)  Bbb    -0.0005    -0.067    -0.024    -0.022  0.5418 -0.4113  0.7330
              Bcc     0.0011     0.141     0.050     0.047  0.7795  0.5721 -0.2552
 
              Baa    -0.0003    -0.038    -0.014    -0.013 -0.0693 -0.0483  0.9964
    74 C(13)  Bbb    -0.0002    -0.028    -0.010    -0.009 -0.6150  0.7885 -0.0045
              Bcc     0.0005     0.066     0.024     0.022  0.7855  0.6131  0.0844
 
              Baa    -0.0006    -0.335    -0.120    -0.112 -0.2891 -0.0735  0.9545
    75 H(1)   Bbb    -0.0005    -0.273    -0.097    -0.091 -0.6040  0.7875 -0.1223
              Bcc     0.0011     0.609     0.217     0.203  0.7427  0.6119  0.2721
 
              Baa    -0.0003    -0.043    -0.015    -0.014  0.1225  0.2032  0.9715
    76 C(13)  Bbb    -0.0002    -0.028    -0.010    -0.009 -0.6415  0.7630 -0.0787
              Bcc     0.0005     0.070     0.025     0.023  0.7572  0.6136 -0.2238
 
              Baa    -0.0006    -0.340    -0.121    -0.113  0.3762  0.1938  0.9060
    77 H(1)   Bbb    -0.0004    -0.232    -0.083    -0.078 -0.5999  0.7962  0.0788
              Bcc     0.0011     0.572     0.204     0.191  0.7061  0.5732 -0.4158
 
              Baa    -0.0004    -0.047    -0.017    -0.016 -0.6692  0.7160 -0.1987
    78 C(13)  Bbb    -0.0002    -0.024    -0.009    -0.008 -0.0894  0.1879  0.9781
              Bcc     0.0005     0.071     0.026     0.024  0.7377  0.6723 -0.0618
 
              Baa    -0.0002    -0.131    -0.047    -0.044 -0.1955 -0.0664  0.9785
    79 H(1)   Bbb    -0.0002    -0.119    -0.042    -0.040 -0.6583  0.7484 -0.0808
              Bcc     0.0005     0.250     0.089     0.083  0.7269  0.6600  0.1900
 
              Baa    -0.0002    -0.124    -0.044    -0.041  0.1147  0.3178  0.9412
    80 H(1)   Bbb    -0.0002    -0.112    -0.040    -0.037  0.7036 -0.6948  0.1489
              Bcc     0.0004     0.236     0.084     0.079  0.7013  0.6451 -0.3033
 
              Baa    -0.0001    -0.017    -0.006    -0.006 -0.1985  0.1272  0.9718
    81 C(13)  Bbb    -0.0001    -0.016    -0.006    -0.005 -0.6726  0.7035 -0.2295
              Bcc     0.0002     0.033     0.012     0.011  0.7129  0.6992  0.0541
 
              Baa    -0.0001    -0.072    -0.026    -0.024 -0.2542  0.0695  0.9647
    82 H(1)   Bbb    -0.0001    -0.069    -0.025    -0.023  0.7129 -0.6605  0.2354
              Bcc     0.0003     0.141     0.050     0.047  0.6536  0.7476  0.1183
 
              Baa    -0.0001    -0.067    -0.024    -0.022 -0.2189  0.1006  0.9705
    83 H(1)   Bbb    -0.0001    -0.065    -0.023    -0.022 -0.6063  0.7653 -0.2161
              Bcc     0.0002     0.132     0.047     0.044  0.7645  0.6357  0.1065
 
              Baa    -0.0001    -0.051    -0.018    -0.017 -0.1531  0.1218  0.9807
    84 H(1)   Bbb    -0.0001    -0.050    -0.018    -0.017 -0.6922  0.6950 -0.1944
              Bcc     0.0002     0.101     0.036     0.034  0.7053  0.7086  0.0221
 
              Baa    -0.0002     0.015     0.005     0.005  0.1153 -0.0156  0.9932
    85 O(17)  Bbb    -0.0001     0.006     0.002     0.002 -0.6470  0.7575  0.0870
              Bcc     0.0003    -0.020    -0.007    -0.007  0.7538  0.6526 -0.0772
 
              Baa    -0.0013    -0.694    -0.248    -0.231  0.3812  0.6159  0.6895
    86 H(1)   Bbb    -0.0011    -0.587    -0.209    -0.196  0.7151 -0.6691  0.2023
              Bcc     0.0024     1.281     0.457     0.427 -0.5859 -0.4160  0.6955
 
              Baa    -0.0054    -0.726    -0.259    -0.242  0.0933  0.5155  0.8518
    87 C(13)  Bbb    -0.0044    -0.596    -0.213    -0.199  0.9684 -0.2456  0.0426
              Bcc     0.0099     1.322     0.472     0.441  0.2311  0.8210 -0.5221
 
              Baa    -0.0108    -1.443    -0.515    -0.481  0.7730  0.5187 -0.3652
    88 C(13)  Bbb     0.0030     0.409     0.146     0.136 -0.1174  0.6828  0.7211
              Bcc     0.0077     1.034     0.369     0.345  0.6234 -0.5145  0.5888
 
              Baa    -0.0076    -1.025    -0.366    -0.342  0.6664  0.4517 -0.5932
    89 C(13)  Bbb     0.0017     0.229     0.082     0.076  0.5404  0.2555  0.8016
              Bcc     0.0059     0.796     0.284     0.265 -0.5137  0.8548  0.0739
 
              Baa    -0.0024    -0.317    -0.113    -0.106 -0.1413  0.6994  0.7006
    90 C(13)  Bbb    -0.0009    -0.127    -0.045    -0.042  0.8901 -0.2200  0.3992
              Bcc     0.0033     0.444     0.158     0.148  0.4334  0.6800 -0.5915
 
              Baa    -0.0020    -1.091    -0.389    -0.364 -0.0436  0.8399  0.5410
    91 H(1)   Bbb    -0.0013    -0.695    -0.248    -0.232  0.9444  0.2112 -0.2519
              Bcc     0.0033     1.785     0.637     0.596  0.3259 -0.5000  0.8024
 
              Baa    -0.0022    -0.298    -0.106    -0.099  0.4444  0.2918  0.8470
    92 C(13)  Bbb    -0.0005    -0.066    -0.024    -0.022  0.7692 -0.6089 -0.1939
              Bcc     0.0027     0.364     0.130     0.121  0.4591  0.7377 -0.4951
 
              Baa    -0.0021    -1.117    -0.399    -0.373  0.5361  0.0544  0.8424
    93 H(1)   Bbb    -0.0015    -0.808    -0.288    -0.270  0.8378  0.0880 -0.5389
              Bcc     0.0036     1.925     0.687     0.642 -0.1035  0.9946  0.0016
 
              Baa    -0.0075    -1.010    -0.360    -0.337  0.6493  0.5731 -0.5000
    94 C(13)  Bbb     0.0033     0.439     0.157     0.146  0.1697  0.5316  0.8298
              Bcc     0.0043     0.571     0.204     0.191  0.7413 -0.6237  0.2480
 
              Baa    -0.0006    -0.329    -0.117    -0.110 -0.3458  0.5984  0.7227
    95 H(1)   Bbb    -0.0004    -0.205    -0.073    -0.068  0.8101  0.5790 -0.0919
              Bcc     0.0010     0.533     0.190     0.178  0.4734 -0.5537  0.6850
 
              Baa    -0.0006    -0.334    -0.119    -0.111  0.6938  0.2292  0.6828
    96 H(1)   Bbb    -0.0005    -0.242    -0.087    -0.081 -0.6580 -0.1837  0.7303
              Bcc     0.0011     0.576     0.206     0.192 -0.2928  0.9559 -0.0233
 
              Baa    -0.0005    -0.255    -0.091    -0.085  0.9069  0.1428 -0.3964
    97 H(1)   Bbb     0.0001     0.049     0.018     0.016  0.1903  0.7006  0.6877
              Bcc     0.0004     0.206     0.073     0.069 -0.3759  0.6991 -0.6082
 

 ---------------------------------------------------------------------------------

 1\1\GINC-M9-13-3\SP\UM06L\Gen\C41H46Cl1N4Ni2O3(2)\MALLA1\24-Aug-2022\0
 \\#m06l/gen pseudo=read integral=ultrafine temperature=308 scrf=(read)
 \\Title Card Required\\0,2\C,0,2.072412,-2.299804,3.321334\C,0,1.12383
 2,-1.817269,4.222386\C,0,-0.062138,-1.193918,3.736635\C,0,-0.192657,-1
 .036997,2.305077\C,0,1.83983,-2.144851,1.933414\H,0,-1.060199,-0.82455
 9,5.651655\H,0,2.977976,-2.820931,3.661986\H,0,1.26544,-1.940333,5.307
 248\C,0,-1.137056,-0.735545,4.557312\C,0,-2.344895,-0.133193,2.549865\
 C,0,-2.289758,-0.227904,3.959529\H,0,-3.159852,0.080076,4.557253\N,0,-
 1.291101,-0.456253,1.743789\N,0,0.755499,-1.495093,1.447891\C,0,2.6850
 71,-2.742163,0.895627\C,0,-3.521512,0.214735,1.768915\N,0,2.420448,-2.
 669843,-0.374487\N,0,-3.525932,0.042781,0.470175\Ni,0,-1.613967,-0.278
 245,-0.213832\C,0,1.695101,0.400804,-0.576177\C,0,2.409459,1.009405,0.
 406744\C,0,-1.073137,0.342384,-2.107445\H,0,-1.861787,-0.03961,-2.7793
 13\C,0,-1.342932,1.494509,-1.318696\H,0,-0.504695,1.933846,-0.748596\C
 ,0,0.271872,-0.231434,-2.261715\H,0,0.350473,-0.992372,-3.059218\C,0,1
 .482923,0.689352,-2.029573\H,0,1.296919,1.761292,-2.286537\H,0,2.32594
 ,0.605478,1.432936\C,0,-5.585618,0.918089,1.254232\H,0,-5.736262,2.014
 911,1.197326\H,0,-6.5484,0.434153,1.509709\C,0,4.389804,-3.948813,0.07
 6453\H,0,4.533116,-5.042763,0.165963\H,0,5.383908,-3.459712,0.003693\C
 ,0,3.411773,-3.531773,-1.064164\H,0,2.855841,-4.426478,-1.430529\C,0,-
 4.888484,0.338607,-0.015369\H,0,-4.822089,1.116754,-0.805412\O,0,3.752
 841,-3.475064,1.296313\O,0,-4.654674,0.655231,2.350552\Ni,0,0.598301,-
 1.159301,-0.513044\Cl,0,-1.238937,-2.692376,-0.769859\C,0,4.093026,-2.
 89568,-2.316208\C,0,4.780017,-1.56223,-1.956919\H,0,4.059718,-0.847322
 ,-1.509156\H,0,5.610915,-1.700773,-1.232971\H,0,5.216276,-1.096704,-2.
 865306\C,0,5.134602,-3.897862,-2.865168\H,0,4.66817,-4.877901,-3.10307
 9\H,0,5.586459,-3.505742,-3.800252\H,0,5.965821,-4.07756,-2.150882\C,0
 ,3.01195,-2.662349,-3.391091\H,0,2.212849,-1.998647,-3.009722\H,0,3.45
 2815,-2.196662,-4.29736\H,0,2.53725,-3.619203,-3.695827\C,0,-5.58476,-
 0.913427,-0.654884\C,0,-5.659801,-2.078559,0.353555\H,0,-4.644773,-2.3
 98456,0.666949\H,0,-6.238324,-1.812717,1.263966\H,0,-6.161447,-2.95463
 2,-0.108036\C,0,-4.775894,-1.355991,-1.893064\H,0,-4.715032,-0.538017,
 -2.641933\H,0,-3.743301,-1.656727,-1.620089\H,0,-5.267383,-2.223451,-2
 .38228\C,0,-7.004883,-0.501941,-1.104074\H,0,-6.972396,0.352752,-1.813
 165\H,0,-7.502603,-1.349196,-1.620452\H,0,-7.654632,-0.212693,-0.25105
 3\C,0,3.305391,2.177713,0.314193\C,0,3.80718,2.750234,1.511525\C,0,3.7
 24959,2.784061,-0.905108\C,0,4.661226,3.865325,1.516753\H,0,3.51274,2.
 30488,2.476705\C,0,4.575017,3.893534,-0.916777\H,0,3.391791,2.371752,-
 1.867599\C,0,5.05207,4.452334,0.292817\H,0,5.015387,4.266712,2.477117\
 H,0,4.894723,4.351107,-1.866107\C,0,6.386584,6.130377,1.361795\H,0,5.5
 71718,6.516174,2.015071\H,0,7.008577,5.417204,1.948493\H,0,7.019921,6.
 978117,1.039058\O,0,5.87649,5.535566,0.175034\H,0,2.349412,0.353872,-2
 .64418\C,0,-2.491202,2.404615,-1.488436\C,0,-3.372525,2.336736,-2.6002
 5\C,0,-2.705618,3.44271,-0.542134\C,0,-4.425577,3.25495,-2.749116\H,0,
 -3.211879,1.570784,-3.374786\C,0,-3.75988,4.356364,-0.68827\H,0,-2.025
 382,3.524573,0.321695\C,0,-4.629712,4.267558,-1.79325\H,0,-5.086399,3.
 185342,-3.628254\H,0,-3.90064,5.151667,0.061529\H,0,-5.452116,4.990238
 ,-1.914502\\Version=ES64L-G16RevB.01\State=2-A\HF=-2834.2292428\S2=0.8
 05443\S2-1=0.\S2A=0.75154\RMSD=3.492e-09\Dipole=0.0252618,0.5637419,2.
 253213\Quadrupole=13.5204828,-17.3923352,3.8718524,-15.9790955,2.59538
 87,2.7525194\PG=C01 [X(C41H46Cl1N4Ni2O3)]\\@


 IT CANNOT BE MY BEAUTY, FOR I HAVE NONE; AND IT CANNOT BE MY WIT,
 FOR HE HAS NOT ENOUGH TO KNOW THAT I HAVE ANY.
 -- CATHARINE SEDLEY, PUZZLED ABOUT WHY SHE WAS MISTRESS TO JAMES II
 Job cpu time:       1 days  5 hours 25 minutes 44.3 seconds.
 Elapsed time:       0 days  2 hours 27 minutes 50.1 seconds.
 File lengths (MBytes):  RWF=   3726 Int=      0 D2E=      0 Chk=    238 Scr=      1
 Normal termination of Gaussian 16 at Wed Aug 24 17:45:36 2022.
