 Entering Gaussian System, Link 0=g16
 Input=Pro_R_E_c1.com
 Output=Pro_R_E_c1.log
 Initial command:
 /apps/gaussian16/B.01/AVX2/g16/l1.exe "/tmp/49413157/Gau-32522.inp" -scrdir="/tmp/49413157/"
 Entering Link 1 = /apps/gaussian16/B.01/AVX2/g16/l1.exe PID=     32523.
  
 Copyright (c) 1988-2017, Gaussian, Inc.  All Rights Reserved.
  
 This is part of the Gaussian(R) 16 program.  It is based on
 the Gaussian(R) 09 system (copyright 2009, Gaussian, Inc.),
 the Gaussian(R) 03 system (copyright 2003, Gaussian, Inc.),
 the Gaussian(R) 98 system (copyright 1998, Gaussian, Inc.),
 the Gaussian(R) 94 system (copyright 1995, Gaussian, Inc.),
 the Gaussian 92(TM) system (copyright 1992, Gaussian, Inc.),
 the Gaussian 90(TM) system (copyright 1990, Gaussian, Inc.),
 the Gaussian 88(TM) system (copyright 1988, Gaussian, Inc.),
 the Gaussian 86(TM) system (copyright 1986, Carnegie Mellon
 University), and the Gaussian 82(TM) system (copyright 1983,
 Carnegie Mellon University). Gaussian is a federally registered
 trademark of Gaussian, Inc.
  
 This software contains proprietary and confidential information,
 including trade secrets, belonging to Gaussian, Inc.
  
 This software is provided under written license and may be
 used, copied, transmitted, or stored only in accord with that
 written license.
  
 The following legend is applicable only to US Government
 contracts under FAR:
  
                    RESTRICTED RIGHTS LEGEND
  
 Use, reproduction and disclosure by the US Government is
 subject to restrictions as set forth in subparagraphs (a)
 and (c) of the Commercial Computer Software - Restricted
 Rights clause in FAR 52.227-19.
  
 Gaussian, Inc.
 340 Quinnipiac St., Bldg. 40, Wallingford CT 06492
  
  
 ---------------------------------------------------------------
 Warning -- This program may not be used in any manner that
 competes with the business of Gaussian, Inc. or will provide
 assistance to any competitor of Gaussian, Inc.  The licensee
 of this program is prohibited from giving any competitor of
 Gaussian, Inc. access to this program.  By using this program,
 the user acknowledges that Gaussian, Inc. is engaged in the
 business of creating and licensing software in the field of
 computational chemistry and represents and warrants to the
 licensee that it is not a competitor of Gaussian, Inc. and that
 it will not use this program in any manner prohibited above.
 ---------------------------------------------------------------
  

 Cite this work as:
 Gaussian 16, Revision B.01,
 M. J. Frisch, G. W. Trucks, H. B. Schlegel, G. E. Scuseria, 
 M. A. Robb, J. R. Cheeseman, G. Scalmani, V. Barone, 
 G. A. Petersson, H. Nakatsuji, X. Li, M. Caricato, A. V. Marenich, 
 J. Bloino, B. G. Janesko, R. Gomperts, B. Mennucci, H. P. Hratchian, 
 J. V. Ortiz, A. F. Izmaylov, J. L. Sonnenberg, D. Williams-Young, 
 F. Ding, F. Lipparini, F. Egidi, J. Goings, B. Peng, A. Petrone, 
 T. Henderson, D. Ranasinghe, V. G. Zakrzewski, J. Gao, N. Rega, 
 G. Zheng, W. Liang, M. Hada, M. Ehara, K. Toyota, R. Fukuda, 
 J. Hasegawa, M. Ishida, T. Nakajima, Y. Honda, O. Kitao, H. Nakai, 
 T. Vreven, K. Throssell, J. A. Montgomery, Jr., J. E. Peralta, 
 F. Ogliaro, M. J. Bearpark, J. J. Heyd, E. N. Brothers, K. N. Kudin, 
 V. N. Staroverov, T. A. Keith, R. Kobayashi, J. Normand, 
 K. Raghavachari, A. P. Rendell, J. C. Burant, S. S. Iyengar, 
 J. Tomasi, M. Cossi, J. M. Millam, M. Klene, C. Adamo, R. Cammi, 
 J. W. Ochterski, R. L. Martin, K. Morokuma, O. Farkas, 
 J. B. Foresman, and D. J. Fox, Gaussian, Inc., Wallingford CT, 2016.
 
 ******************************************
 Gaussian 16:  ES64L-G16RevB.01 20-Dec-2017
                20-May-2022 
 ******************************************
 %nprocshared=12
 Will use up to   12 processors via shared memory.
 %mem=24GB
 %chk=Pro_R_E_c1.chk
 ----------------------------------------------------------------------
 #opt=(MaxCycles=500) freq=noraman bp86/gen pseudo=read integral=ultraf
 ine temperature=308 scrf=(read)
 ----------------------------------------------------------------------
 1/6=500,18=20,19=15,26=6,38=1,40=2,112=308000/1,3;
 2/9=110,12=2,17=6,18=5,40=1/2;
 3/5=7,11=2,16=1,17=8,25=1,30=1,70=2203,71=1,74=404,75=-5/1,2,3;
 4//1;
 5/5=2,38=5/2;
 6/7=2,8=2,9=2,10=2,28=1/1;
 7//1,2,3,16;
 1/6=500,18=20,19=15,26=6/3(2);
 2/9=110/2;
 99//99;
 2/9=110/2;
 3/5=7,6=1,11=2,16=1,17=8,25=1,30=1,70=2205,71=1,74=404,75=-5,82=7/1,2,3;
 4/5=5,16=3,69=1/1;
 5/5=2,38=5/2;
 7//1,2,3,16;
 1/6=500,18=20,19=15,26=6/3(-5);
 2/9=110/2;
 6/7=2,8=2,9=2,10=2,19=2,28=1/1;
 99/9=1/99;
 -------------------
 Title Card Required
 -------------------
 Symbolic Z-matrix:
 Charge =  0 Multiplicity = 2
 C                    -2.649     1.719    -2.675 
 C                    -1.729     2.748    -2.902 
 C                    -0.407     2.647    -2.405 
 C                    -0.079     1.461    -1.662 
 C                    -2.251     0.616    -1.91 
 H                     0.419     4.54     -3.116 
 H                    -3.659     1.754    -3.083 
 H                    -2.018     3.628    -3.481 
 C                     0.63      3.617    -2.572 
 C                     2.15      2.166    -1.38 
 C                     1.896     3.377    -2.048 
 H                     2.705     4.101    -2.161 
 N                     1.165     1.218    -1.187 
 N                    -0.999     0.519    -1.383 
 C                    -3.002    -0.603    -1.668 
 C                     3.391     1.688    -0.85 
 N                    -2.495    -1.558    -0.937 
 N                     3.455     0.455    -0.365 
 Ni                    1.679    -0.376    -0.259 
 C                    -0.102    -0.614     1.213 
 C                    -0.85      0.256     1.944 
 C                     2.011    -1.842     1.005 
 H                     3.062    -1.903     1.297 
 C                     0.957    -1.449     2.027 
 H                     0.454    -2.366     2.403 
 C                     1.517    -2.537    -0.123 
 H                     2.211    -2.902    -0.885 
 C                     0.141    -2.993    -0.172 
 H                    -0.305    -3.279     0.787 
 H                    -0.634     0.244     3.026 
 C                     5.438     1.647     0.036 
 H                     5.401     2.07      1.053 
 H                     6.444     1.771    -0.381 
 C                    -4.38     -2.286    -2.161 
 H                    -4.101    -2.742    -3.123 
 H                    -5.447    -2.448    -1.963 
 C                    -3.43     -2.707    -1.006 
 H                    -2.846    -3.596    -1.299 
 C                     4.88      0.204    -0.025 
 H                     4.935    -0.272     0.969 
 O                    -4.175    -0.836    -2.3 
 O                     4.52      2.433    -0.799 
 Ni                   -0.478    -1.209    -0.634 
 Cl                   -0.112    -1.856    -2.942 
 C                    -4.153    -3.022     0.346 
 C                    -5.081    -1.864     0.764 
 H                    -4.522    -0.92      0.855 
 H                    -5.905    -1.708     0.049 
 H                    -5.538    -2.083     1.744 
 C                    -4.978    -4.315     0.159 
 H                    -4.334    -5.161    -0.137 
 H                    -5.476    -4.587     1.104 
 H                    -5.765    -4.203    -0.605 
 C                    -3.1      -3.255     1.448 
 H                    -2.475    -2.361     1.597 
 H                    -3.597    -3.499     2.402 
 H                    -2.439    -4.1       1.19 
 C                     5.629    -0.719    -1.05 
 C                     5.679    -0.08     -2.454 
 H                     4.665     0.089    -2.849 
 H                     6.219     0.88     -2.464 
 H                     6.197    -0.756    -3.153 
 C                     4.909    -2.076    -1.154 
 H                     4.819    -2.566    -0.17 
 H                     3.902    -1.949    -1.578 
 H                     5.471    -2.755    -1.816 
 C                     7.062    -0.956    -0.521 
 H                     7.048    -1.416     0.481 
 H                     7.604    -1.638    -1.195 
 H                     7.65     -0.025    -0.46 
 C                    -1.909     1.244     1.62 
 C                    -3.209     1.08      2.132 
 C                    -1.626     2.462     0.964 
 C                    -4.209     2.048     1.954 
 H                    -3.448     0.172     2.693 
 C                    -2.604     3.439     0.782 
 H                    -0.608     2.654     0.621 
 C                    -3.909     3.235     1.264 
 H                    -5.205     1.869     2.362 
 H                    -2.376     4.38      0.276 
 C                    -6.131     4.093     1.526 
 H                    -6.63      3.213     1.08 
 H                    -6.144     4.        2.627 
 H                    -6.67      5.003     1.233 
 O                    -4.802     4.254     1.027 
 H                    -0.101    -3.66     -1.003 
 C                     1.552    -0.748     3.236 
 C                     1.396    -1.289     4.524 
 C                     2.288     0.445     3.098 
 C                     1.962    -0.663     5.644 
 H                     0.825    -2.214     4.649 
 C                     2.854     1.073     4.212 
 H                     2.397     0.882     2.101 
 C                     2.693     0.521     5.492 
 H                     1.827    -1.101     6.637 
 H                     3.414     2.004     4.085 
 H                     3.132     1.014     6.364 
 

 GradGradGradGradGradGradGradGradGradGradGradGradGradGradGradGradGradGrad
 Berny optimization.
 Initialization pass.
                           ----------------------------
                           !    Initial Parameters    !
                           ! (Angstroms and Degrees)  !
 --------------------------                            --------------------------
 ! Name  Definition              Value          Derivative Info.                !
 --------------------------------------------------------------------------------
 ! R1    R(1,2)                  1.3988         estimate D2E/DX2                !
 ! R2    R(1,5)                  1.4001         estimate D2E/DX2                !
 ! R3    R(1,7)                  1.0899         estimate D2E/DX2                !
 ! R4    R(2,3)                  1.4159         estimate D2E/DX2                !
 ! R5    R(2,8)                  1.0923         estimate D2E/DX2                !
 ! R6    R(3,4)                  1.4374         estimate D2E/DX2                !
 ! R7    R(3,9)                  1.4297         estimate D2E/DX2                !
 ! R8    R(4,13)                 1.3536         estimate D2E/DX2                !
 ! R9    R(4,14)                 1.346          estimate D2E/DX2                !
 ! R10   R(5,14)                 1.3619         estimate D2E/DX2                !
 ! R11   R(5,15)                 1.4521         estimate D2E/DX2                !
 ! R12   R(6,9)                  1.092          estimate D2E/DX2                !
 ! R13   R(9,11)                 1.391          estimate D2E/DX2                !
 ! R14   R(10,11)                1.4062         estimate D2E/DX2                !
 ! R15   R(10,13)                1.3806         estimate D2E/DX2                !
 ! R16   R(10,16)                1.4316         estimate D2E/DX2                !
 ! R17   R(11,12)                1.0915         estimate D2E/DX2                !
 ! R18   R(13,19)                1.9147         estimate D2E/DX2                !
 ! R19   R(14,43)                1.9541         estimate D2E/DX2                !
 ! R20   R(15,17)                1.3052         estimate D2E/DX2                !
 ! R21   R(15,41)                1.3526         estimate D2E/DX2                !
 ! R22   R(16,18)                1.3265         estimate D2E/DX2                !
 ! R23   R(16,42)                1.3536         estimate D2E/DX2                !
 ! R24   R(17,37)                1.483          estimate D2E/DX2                !
 ! R25   R(17,43)                2.0693         estimate D2E/DX2                !
 ! R26   R(18,19)                1.9637         estimate D2E/DX2                !
 ! R27   R(18,39)                1.4863         estimate D2E/DX2                !
 ! R28   R(19,22)                1.9639         estimate D2E/DX2                !
 ! R29   R(19,26)                2.1713         estimate D2E/DX2                !
 ! R30   R(19,43)                2.3425         estimate D2E/DX2                !
 ! R31   R(20,21)                1.3604         estimate D2E/DX2                !
 ! R32   R(20,24)                1.5752         estimate D2E/DX2                !
 ! R33   R(20,43)                1.9766         estimate D2E/DX2                !
 ! R34   R(21,30)                1.1034         estimate D2E/DX2                !
 ! R35   R(21,71)                1.4841         estimate D2E/DX2                !
 ! R36   R(22,23)                1.0925         estimate D2E/DX2                !
 ! R37   R(22,24)                1.5198         estimate D2E/DX2                !
 ! R38   R(22,26)                1.414          estimate D2E/DX2                !
 ! R39   R(24,25)                1.1114         estimate D2E/DX2                !
 ! R40   R(24,87)                1.5189         estimate D2E/DX2                !
 ! R41   R(26,27)                1.0934         estimate D2E/DX2                !
 ! R42   R(26,28)                1.4504         estimate D2E/DX2                !
 ! R43   R(28,29)                1.0956         estimate D2E/DX2                !
 ! R44   R(28,43)                1.944          estimate D2E/DX2                !
 ! R45   R(28,86)                1.0927         estimate D2E/DX2                !
 ! R46   R(31,32)                1.1021         estimate D2E/DX2                !
 ! R47   R(31,33)                1.096          estimate D2E/DX2                !
 ! R48   R(31,39)                1.5483         estimate D2E/DX2                !
 ! R49   R(31,42)                1.4689         estimate D2E/DX2                !
 ! R50   R(34,35)                1.1006         estimate D2E/DX2                !
 ! R51   R(34,36)                1.0972         estimate D2E/DX2                !
 ! R52   R(34,37)                1.5536         estimate D2E/DX2                !
 ! R53   R(34,41)                1.471          estimate D2E/DX2                !
 ! R54   R(37,38)                1.1033         estimate D2E/DX2                !
 ! R55   R(37,45)                1.5652         estimate D2E/DX2                !
 ! R56   R(39,40)                1.1035         estimate D2E/DX2                !
 ! R57   R(39,58)                1.5696         estimate D2E/DX2                !
 ! R58   R(43,44)                2.4248         estimate D2E/DX2                !
 ! R59   R(45,46)                1.5417         estimate D2E/DX2                !
 ! R60   R(45,50)                1.5451         estimate D2E/DX2                !
 ! R61   R(45,54)                1.5419         estimate D2E/DX2                !
 ! R62   R(46,47)                1.1009         estimate D2E/DX2                !
 ! R63   R(46,48)                1.1021         estimate D2E/DX2                !
 ! R64   R(46,49)                1.1033         estimate D2E/DX2                !
 ! R65   R(50,51)                1.1037         estimate D2E/DX2                !
 ! R66   R(50,52)                1.1023         estimate D2E/DX2                !
 ! R67   R(50,53)                1.1025         estimate D2E/DX2                !
 ! R68   R(54,55)                1.1009         estimate D2E/DX2                !
 ! R69   R(54,56)                1.103          estimate D2E/DX2                !
 ! R70   R(54,57)                1.1034         estimate D2E/DX2                !
 ! R71   R(58,59)                1.5434         estimate D2E/DX2                !
 ! R72   R(58,63)                1.5397         estimate D2E/DX2                !
 ! R73   R(58,67)                1.5458         estimate D2E/DX2                !
 ! R74   R(59,60)                1.1013         estimate D2E/DX2                !
 ! R75   R(59,61)                1.1015         estimate D2E/DX2                !
 ! R76   R(59,62)                1.1018         estimate D2E/DX2                !
 ! R77   R(63,64)                1.1029         estimate D2E/DX2                !
 ! R78   R(63,65)                1.1            estimate D2E/DX2                !
 ! R79   R(63,66)                1.1023         estimate D2E/DX2                !
 ! R80   R(67,68)                1.1026         estimate D2E/DX2                !
 ! R81   R(67,69)                1.1014         estimate D2E/DX2                !
 ! R82   R(67,70)                1.1028         estimate D2E/DX2                !
 ! R83   R(71,72)                1.4068         estimate D2E/DX2                !
 ! R84   R(71,73)                1.4121         estimate D2E/DX2                !
 ! R85   R(72,74)                1.4031         estimate D2E/DX2                !
 ! R86   R(72,75)                1.0938         estimate D2E/DX2                !
 ! R87   R(73,76)                1.3943         estimate D2E/DX2                !
 ! R88   R(73,77)                1.0913         estimate D2E/DX2                !
 ! R89   R(74,78)                1.4054         estimate D2E/DX2                !
 ! R90   R(74,79)                1.0911         estimate D2E/DX2                !
 ! R91   R(76,78)                1.406          estimate D2E/DX2                !
 ! R92   R(76,80)                1.0925         estimate D2E/DX2                !
 ! R93   R(78,85)                1.3755         estimate D2E/DX2                !
 ! R94   R(81,82)                1.1056         estimate D2E/DX2                !
 ! R95   R(81,83)                1.105          estimate D2E/DX2                !
 ! R96   R(81,84)                1.0975         estimate D2E/DX2                !
 ! R97   R(81,85)                1.4287         estimate D2E/DX2                !
 ! R98   R(87,88)                1.4057         estimate D2E/DX2                !
 ! R99   R(87,89)                1.4085         estimate D2E/DX2                !
 ! R100  R(88,90)                1.4024         estimate D2E/DX2                !
 ! R101  R(88,91)                1.0942         estimate D2E/DX2                !
 ! R102  R(89,92)                1.3985         estimate D2E/DX2                !
 ! R103  R(89,93)                1.094          estimate D2E/DX2                !
 ! R104  R(90,94)                1.3998         estimate D2E/DX2                !
 ! R105  R(90,95)                1.0937         estimate D2E/DX2                !
 ! R106  R(92,94)                1.4032         estimate D2E/DX2                !
 ! R107  R(92,96)                1.0938         estimate D2E/DX2                !
 ! R108  R(94,97)                1.0937         estimate D2E/DX2                !
 ! A1    A(2,1,5)              118.7655         estimate D2E/DX2                !
 ! A2    A(2,1,7)              121.6764         estimate D2E/DX2                !
 ! A3    A(5,1,7)              119.5569         estimate D2E/DX2                !
 ! A4    A(1,2,3)              120.3061         estimate D2E/DX2                !
 ! A5    A(1,2,8)              120.307          estimate D2E/DX2                !
 ! A6    A(3,2,8)              119.3761         estimate D2E/DX2                !
 ! A7    A(2,3,4)              116.9574         estimate D2E/DX2                !
 ! A8    A(2,3,9)              126.0005         estimate D2E/DX2                !
 ! A9    A(4,3,9)              117.0419         estimate D2E/DX2                !
 ! A10   A(3,4,13)             122.6303         estimate D2E/DX2                !
 ! A11   A(3,4,14)             121.9126         estimate D2E/DX2                !
 ! A12   A(13,4,14)            115.4551         estimate D2E/DX2                !
 ! A13   A(1,5,14)             121.9306         estimate D2E/DX2                !
 ! A14   A(1,5,15)             127.2574         estimate D2E/DX2                !
 ! A15   A(14,5,15)            110.5599         estimate D2E/DX2                !
 ! A16   A(3,9,6)              119.4396         estimate D2E/DX2                !
 ! A17   A(3,9,11)             119.938          estimate D2E/DX2                !
 ! A18   A(6,9,11)             120.6218         estimate D2E/DX2                !
 ! A19   A(11,10,13)           121.9297         estimate D2E/DX2                !
 ! A20   A(11,10,16)           128.3171         estimate D2E/DX2                !
 ! A21   A(13,10,16)           109.7208         estimate D2E/DX2                !
 ! A22   A(9,11,10)            119.4685         estimate D2E/DX2                !
 ! A23   A(9,11,12)            121.4069         estimate D2E/DX2                !
 ! A24   A(10,11,12)           119.1133         estimate D2E/DX2                !
 ! A25   A(4,13,10)            118.9045         estimate D2E/DX2                !
 ! A26   A(4,13,19)            124.4883         estimate D2E/DX2                !
 ! A27   A(10,13,19)           116.6059         estimate D2E/DX2                !
 ! A28   A(4,14,5)             119.8894         estimate D2E/DX2                !
 ! A29   A(4,14,43)            121.0717         estimate D2E/DX2                !
 ! A30   A(5,14,43)            117.1568         estimate D2E/DX2                !
 ! A31   A(5,15,17)            120.4442         estimate D2E/DX2                !
 ! A32   A(5,15,41)            121.0136         estimate D2E/DX2                !
 ! A33   A(17,15,41)           118.1979         estimate D2E/DX2                !
 ! A34   A(10,16,18)           119.1791         estimate D2E/DX2                !
 ! A35   A(10,16,42)           123.587          estimate D2E/DX2                !
 ! A36   A(18,16,42)           117.2302         estimate D2E/DX2                !
 ! A37   A(15,17,37)           107.2145         estimate D2E/DX2                !
 ! A38   A(15,17,43)           109.7093         estimate D2E/DX2                !
 ! A39   A(37,17,43)           138.7687         estimate D2E/DX2                !
 ! A40   A(16,18,19)           111.6823         estimate D2E/DX2                !
 ! A41   A(16,18,39)           106.67           estimate D2E/DX2                !
 ! A42   A(19,18,39)           141.5629         estimate D2E/DX2                !
 ! A43   A(13,19,18)            82.2024         estimate D2E/DX2                !
 ! A44   A(13,19,26)           147.0199         estimate D2E/DX2                !
 ! A45   A(13,19,43)            88.3532         estimate D2E/DX2                !
 ! A46   A(18,19,22)           101.405          estimate D2E/DX2                !
 ! A47   A(18,19,26)           119.4745         estimate D2E/DX2                !
 ! A48   A(22,19,43)            89.6132         estimate D2E/DX2                !
 ! A49   A(26,19,43)            65.6323         estimate D2E/DX2                !
 ! A50   A(21,20,24)           115.5289         estimate D2E/DX2                !
 ! A51   A(21,20,43)           126.1587         estimate D2E/DX2                !
 ! A52   A(24,20,43)           116.8207         estimate D2E/DX2                !
 ! A53   A(20,21,30)           114.3504         estimate D2E/DX2                !
 ! A54   A(20,21,71)           134.4876         estimate D2E/DX2                !
 ! A55   A(30,21,71)           111.1615         estimate D2E/DX2                !
 ! A56   A(19,22,23)           112.1059         estimate D2E/DX2                !
 ! A57   A(19,22,24)            97.0383         estimate D2E/DX2                !
 ! A58   A(23,22,24)           120.1233         estimate D2E/DX2                !
 ! A59   A(23,22,26)           121.4566         estimate D2E/DX2                !
 ! A60   A(24,22,26)           114.9132         estimate D2E/DX2                !
 ! A61   A(20,24,22)           104.8219         estimate D2E/DX2                !
 ! A62   A(20,24,25)           107.9337         estimate D2E/DX2                !
 ! A63   A(20,24,87)           115.4694         estimate D2E/DX2                !
 ! A64   A(22,24,25)           109.1476         estimate D2E/DX2                !
 ! A65   A(22,24,87)           112.5146         estimate D2E/DX2                !
 ! A66   A(25,24,87)           106.7852         estimate D2E/DX2                !
 ! A67   A(19,26,27)           103.9591         estimate D2E/DX2                !
 ! A68   A(19,26,28)           112.4304         estimate D2E/DX2                !
 ! A69   A(22,26,27)           119.8861         estimate D2E/DX2                !
 ! A70   A(22,26,28)           120.8579         estimate D2E/DX2                !
 ! A71   A(27,26,28)           118.2722         estimate D2E/DX2                !
 ! A72   A(26,28,29)           116.02           estimate D2E/DX2                !
 ! A73   A(26,28,43)            91.2371         estimate D2E/DX2                !
 ! A74   A(26,28,86)           115.322          estimate D2E/DX2                !
 ! A75   A(29,28,43)           108.5389         estimate D2E/DX2                !
 ! A76   A(29,28,86)           114.5928         estimate D2E/DX2                !
 ! A77   A(43,28,86)           107.9936         estimate D2E/DX2                !
 ! A78   A(32,31,33)           109.7843         estimate D2E/DX2                !
 ! A79   A(32,31,39)           112.4554         estimate D2E/DX2                !
 ! A80   A(32,31,42)           107.3496         estimate D2E/DX2                !
 ! A81   A(33,31,39)           114.9123         estimate D2E/DX2                !
 ! A82   A(33,31,42)           107.2655         estimate D2E/DX2                !
 ! A83   A(39,31,42)           104.5405         estimate D2E/DX2                !
 ! A84   A(35,34,36)           110.0648         estimate D2E/DX2                !
 ! A85   A(35,34,37)           112.491          estimate D2E/DX2                !
 ! A86   A(35,34,41)           106.8876         estimate D2E/DX2                !
 ! A87   A(36,34,37)           114.8635         estimate D2E/DX2                !
 ! A88   A(36,34,41)           107.3439         estimate D2E/DX2                !
 ! A89   A(37,34,41)           104.6043         estimate D2E/DX2                !
 ! A90   A(17,37,34)           102.132          estimate D2E/DX2                !
 ! A91   A(17,37,38)           107.6339         estimate D2E/DX2                !
 ! A92   A(17,37,45)           114.0151         estimate D2E/DX2                !
 ! A93   A(34,37,38)           110.1566         estimate D2E/DX2                !
 ! A94   A(34,37,45)           114.4714         estimate D2E/DX2                !
 ! A95   A(38,37,45)           108.1642         estimate D2E/DX2                !
 ! A96   A(18,39,31)           101.3699         estimate D2E/DX2                !
 ! A97   A(18,39,40)           109.0678         estimate D2E/DX2                !
 ! A98   A(18,39,58)           114.0433         estimate D2E/DX2                !
 ! A99   A(31,39,40)           110.3999         estimate D2E/DX2                !
 ! A100  A(31,39,58)           113.691          estimate D2E/DX2                !
 ! A101  A(40,39,58)           108.1078         estimate D2E/DX2                !
 ! A102  A(15,41,34)           104.2704         estimate D2E/DX2                !
 ! A103  A(16,42,31)           104.3688         estimate D2E/DX2                !
 ! A104  A(14,43,17)            80.3943         estimate D2E/DX2                !
 ! A105  A(14,43,19)            89.565          estimate D2E/DX2                !
 ! A106  A(14,43,20)            98.2038         estimate D2E/DX2                !
 ! A107  A(14,43,44)            84.9146         estimate D2E/DX2                !
 ! A108  A(17,43,20)           111.9022         estimate D2E/DX2                !
 ! A109  A(17,43,28)           100.9756         estimate D2E/DX2                !
 ! A110  A(17,43,44)            87.8652         estimate D2E/DX2                !
 ! A111  A(19,43,20)            64.4176         estimate D2E/DX2                !
 ! A112  A(19,43,28)            89.7187         estimate D2E/DX2                !
 ! A113  A(19,43,44)            96.2159         estimate D2E/DX2                !
 ! A114  A(20,43,28)            89.6335         estimate D2E/DX2                !
 ! A115  A(20,43,44)           160.2311         estimate D2E/DX2                !
 ! A116  A(28,43,44)            86.1744         estimate D2E/DX2                !
 ! A117  A(37,45,46)           111.1663         estimate D2E/DX2                !
 ! A118  A(37,45,50)           108.0898         estimate D2E/DX2                !
 ! A119  A(37,45,54)           109.4085         estimate D2E/DX2                !
 ! A120  A(46,45,50)           109.875          estimate D2E/DX2                !
 ! A121  A(46,45,54)           109.317          estimate D2E/DX2                !
 ! A122  A(50,45,54)           108.9459         estimate D2E/DX2                !
 ! A123  A(45,46,47)           111.1524         estimate D2E/DX2                !
 ! A124  A(45,46,48)           112.3631         estimate D2E/DX2                !
 ! A125  A(45,46,49)           109.942          estimate D2E/DX2                !
 ! A126  A(47,46,48)           108.1745         estimate D2E/DX2                !
 ! A127  A(47,46,49)           107.8861         estimate D2E/DX2                !
 ! A128  A(48,46,49)           107.1385         estimate D2E/DX2                !
 ! A129  A(45,50,51)           111.245          estimate D2E/DX2                !
 ! A130  A(45,50,52)           110.1187         estimate D2E/DX2                !
 ! A131  A(45,50,53)           112.3324         estimate D2E/DX2                !
 ! A132  A(51,50,52)           107.7223         estimate D2E/DX2                !
 ! A133  A(51,50,53)           107.9709         estimate D2E/DX2                !
 ! A134  A(52,50,53)           107.2563         estimate D2E/DX2                !
 ! A135  A(45,54,55)           111.2052         estimate D2E/DX2                !
 ! A136  A(45,54,56)           110.112          estimate D2E/DX2                !
 ! A137  A(45,54,57)           110.9599         estimate D2E/DX2                !
 ! A138  A(55,54,56)           108.5643         estimate D2E/DX2                !
 ! A139  A(55,54,57)           108.2659         estimate D2E/DX2                !
 ! A140  A(56,54,57)           107.6227         estimate D2E/DX2                !
 ! A141  A(39,58,59)           111.4726         estimate D2E/DX2                !
 ! A142  A(39,58,63)           109.8306         estimate D2E/DX2                !
 ! A143  A(39,58,67)           108.0023         estimate D2E/DX2                !
 ! A144  A(59,58,63)           108.5784         estimate D2E/DX2                !
 ! A145  A(59,58,67)           110.167          estimate D2E/DX2                !
 ! A146  A(63,58,67)           108.7531         estimate D2E/DX2                !
 ! A147  A(58,59,60)           111.0998         estimate D2E/DX2                !
 ! A148  A(58,59,61)           112.6425         estimate D2E/DX2                !
 ! A149  A(58,59,62)           109.7757         estimate D2E/DX2                !
 ! A150  A(60,59,61)           108.3241         estimate D2E/DX2                !
 ! A151  A(60,59,62)           107.4273         estimate D2E/DX2                !
 ! A152  A(61,59,62)           107.3671         estimate D2E/DX2                !
 ! A153  A(58,63,64)           111.6818         estimate D2E/DX2                !
 ! A154  A(58,63,65)           110.6327         estimate D2E/DX2                !
 ! A155  A(58,63,66)           110.1839         estimate D2E/DX2                !
 ! A156  A(64,63,65)           108.6924         estimate D2E/DX2                !
 ! A157  A(64,63,66)           107.682          estimate D2E/DX2                !
 ! A158  A(65,63,66)           107.8403         estimate D2E/DX2                !
 ! A159  A(58,67,68)           111.2954         estimate D2E/DX2                !
 ! A160  A(58,67,69)           109.9803         estimate D2E/DX2                !
 ! A161  A(58,67,70)           112.5672         estimate D2E/DX2                !
 ! A162  A(68,67,69)           107.6987         estimate D2E/DX2                !
 ! A163  A(68,67,70)           107.9802         estimate D2E/DX2                !
 ! A164  A(69,67,70)           107.1094         estimate D2E/DX2                !
 ! A165  A(21,71,72)           120.1543         estimate D2E/DX2                !
 ! A166  A(21,71,73)           122.1836         estimate D2E/DX2                !
 ! A167  A(72,71,73)           117.0544         estimate D2E/DX2                !
 ! A168  A(71,72,74)           122.1412         estimate D2E/DX2                !
 ! A169  A(71,72,75)           119.0373         estimate D2E/DX2                !
 ! A170  A(74,72,75)           118.8202         estimate D2E/DX2                !
 ! A171  A(71,73,76)           121.632          estimate D2E/DX2                !
 ! A172  A(71,73,77)           118.9957         estimate D2E/DX2                !
 ! A173  A(76,73,77)           119.3418         estimate D2E/DX2                !
 ! A174  A(72,74,78)           119.5278         estimate D2E/DX2                !
 ! A175  A(72,74,79)           119.3381         estimate D2E/DX2                !
 ! A176  A(78,74,79)           121.132          estimate D2E/DX2                !
 ! A177  A(73,76,78)           120.3048         estimate D2E/DX2                !
 ! A178  A(73,76,80)           121.1725         estimate D2E/DX2                !
 ! A179  A(78,76,80)           118.519          estimate D2E/DX2                !
 ! A180  A(74,78,76)           119.2734         estimate D2E/DX2                !
 ! A181  A(74,78,85)           124.8704         estimate D2E/DX2                !
 ! A182  A(76,78,85)           115.8499         estimate D2E/DX2                !
 ! A183  A(82,81,83)           109.2473         estimate D2E/DX2                !
 ! A184  A(82,81,84)           109.3064         estimate D2E/DX2                !
 ! A185  A(82,81,85)           111.6324         estimate D2E/DX2                !
 ! A186  A(83,81,84)           109.2698         estimate D2E/DX2                !
 ! A187  A(83,81,85)           111.6191         estimate D2E/DX2                !
 ! A188  A(84,81,85)           105.6742         estimate D2E/DX2                !
 ! A189  A(78,85,81)           117.4036         estimate D2E/DX2                !
 ! A190  A(24,87,88)           120.5459         estimate D2E/DX2                !
 ! A191  A(24,87,89)           121.171          estimate D2E/DX2                !
 ! A192  A(88,87,89)           118.2767         estimate D2E/DX2                !
 ! A193  A(87,88,90)           121.0104         estimate D2E/DX2                !
 ! A194  A(87,88,91)           119.205          estimate D2E/DX2                !
 ! A195  A(90,88,91)           119.7845         estimate D2E/DX2                !
 ! A196  A(87,89,92)           120.9159         estimate D2E/DX2                !
 ! A197  A(87,89,93)           118.6638         estimate D2E/DX2                !
 ! A198  A(92,89,93)           120.414          estimate D2E/DX2                !
 ! A199  A(88,90,94)           120.108          estimate D2E/DX2                !
 ! A200  A(88,90,95)           119.7715         estimate D2E/DX2                !
 ! A201  A(94,90,95)           120.12           estimate D2E/DX2                !
 ! A202  A(89,92,94)           120.2347         estimate D2E/DX2                !
 ! A203  A(89,92,96)           119.7967         estimate D2E/DX2                !
 ! A204  A(94,92,96)           119.9647         estimate D2E/DX2                !
 ! A205  A(90,94,92)           119.4537         estimate D2E/DX2                !
 ! A206  A(90,94,97)           120.2868         estimate D2E/DX2                !
 ! A207  A(92,94,97)           120.2591         estimate D2E/DX2                !
 ! A208  L(13,19,22,43,-1)     177.9664         estimate D2E/DX2                !
 ! A209  L(18,19,43,13,-1)     170.5556         estimate D2E/DX2                !
 ! A210  L(14,43,28,17,-1)     181.3699         estimate D2E/DX2                !
 ! A211  L(17,43,19,14,-1)     169.9593         estimate D2E/DX2                !
 ! A212  L(13,19,22,43,-2)     191.6643         estimate D2E/DX2                !
 ! A213  L(18,19,43,13,-2)     171.1555         estimate D2E/DX2                !
 ! A214  L(14,43,28,17,-2)     170.8864         estimate D2E/DX2                !
 ! A215  L(17,43,19,14,-2)     175.0308         estimate D2E/DX2                !
 ! D1    D(5,1,2,3)              2.2388         estimate D2E/DX2                !
 ! D2    D(5,1,2,8)           -178.9625         estimate D2E/DX2                !
 ! D3    D(7,1,2,3)           -177.3601         estimate D2E/DX2                !
 ! D4    D(7,1,2,8)              1.4386         estimate D2E/DX2                !
 ! D5    D(2,1,5,14)             0.0432         estimate D2E/DX2                !
 ! D6    D(2,1,5,15)          -173.6271         estimate D2E/DX2                !
 ! D7    D(7,1,5,14)           179.6508         estimate D2E/DX2                !
 ! D8    D(7,1,5,15)             5.9804         estimate D2E/DX2                !
 ! D9    D(1,2,3,4)             -0.5583         estimate D2E/DX2                !
 ! D10   D(1,2,3,9)            179.5759         estimate D2E/DX2                !
 ! D11   D(8,2,3,4)           -179.3681         estimate D2E/DX2                !
 ! D12   D(8,2,3,9)              0.7661         estimate D2E/DX2                !
 ! D13   D(2,3,4,13)           176.9518         estimate D2E/DX2                !
 ! D14   D(2,3,4,14)            -3.5884         estimate D2E/DX2                !
 ! D15   D(9,3,4,13)            -3.1701         estimate D2E/DX2                !
 ! D16   D(9,3,4,14)           176.2896         estimate D2E/DX2                !
 ! D17   D(2,3,9,6)              0.8487         estimate D2E/DX2                !
 ! D18   D(2,3,9,11)          -178.8732         estimate D2E/DX2                !
 ! D19   D(4,3,9,6)           -179.0169         estimate D2E/DX2                !
 ! D20   D(4,3,9,11)             1.2611         estimate D2E/DX2                !
 ! D21   D(3,4,13,10)            2.376          estimate D2E/DX2                !
 ! D22   D(3,4,13,19)         -177.1952         estimate D2E/DX2                !
 ! D23   D(14,4,13,10)        -177.1161         estimate D2E/DX2                !
 ! D24   D(14,4,13,19)           3.3127         estimate D2E/DX2                !
 ! D25   D(3,4,14,5)             5.9399         estimate D2E/DX2                !
 ! D26   D(3,4,14,43)          169.8816         estimate D2E/DX2                !
 ! D27   D(13,4,14,5)         -174.564          estimate D2E/DX2                !
 ! D28   D(13,4,14,43)         -10.6223         estimate D2E/DX2                !
 ! D29   D(1,5,14,4)            -4.1416         estimate D2E/DX2                !
 ! D30   D(1,5,14,43)         -168.6985         estimate D2E/DX2                !
 ! D31   D(15,5,14,4)          170.4808         estimate D2E/DX2                !
 ! D32   D(15,5,14,43)           5.9239         estimate D2E/DX2                !
 ! D33   D(1,5,15,17)          179.4358         estimate D2E/DX2                !
 ! D34   D(1,5,15,41)            6.295          estimate D2E/DX2                !
 ! D35   D(14,5,15,17)           5.1711         estimate D2E/DX2                !
 ! D36   D(14,5,15,41)        -167.9697         estimate D2E/DX2                !
 ! D37   D(3,9,11,10)            1.2609         estimate D2E/DX2                !
 ! D38   D(3,9,11,12)         -179.9708         estimate D2E/DX2                !
 ! D39   D(6,9,11,10)         -178.4577         estimate D2E/DX2                !
 ! D40   D(6,9,11,12)            0.3106         estimate D2E/DX2                !
 ! D41   D(13,10,11,9)          -2.1748         estimate D2E/DX2                !
 ! D42   D(13,10,11,12)        179.0285         estimate D2E/DX2                !
 ! D43   D(16,10,11,9)         175.535          estimate D2E/DX2                !
 ! D44   D(16,10,11,12)         -3.2617         estimate D2E/DX2                !
 ! D45   D(11,10,13,4)           0.3563         estimate D2E/DX2                !
 ! D46   D(11,10,13,19)        179.961          estimate D2E/DX2                !
 ! D47   D(16,10,13,4)        -177.735          estimate D2E/DX2                !
 ! D48   D(16,10,13,19)          1.8697         estimate D2E/DX2                !
 ! D49   D(11,10,16,18)       -173.5087         estimate D2E/DX2                !
 ! D50   D(11,10,16,42)          7.2133         estimate D2E/DX2                !
 ! D51   D(13,10,16,18)          4.4266         estimate D2E/DX2                !
 ! D52   D(13,10,16,42)       -174.8514         estimate D2E/DX2                !
 ! D53   D(4,13,19,18)         174.6888         estimate D2E/DX2                !
 ! D54   D(4,13,19,26)          40.1569         estimate D2E/DX2                !
 ! D55   D(4,13,19,43)           3.5333         estimate D2E/DX2                !
 ! D56   D(10,13,19,18)         -4.8914         estimate D2E/DX2                !
 ! D57   D(10,13,19,26)       -139.4232         estimate D2E/DX2                !
 ! D58   D(10,13,19,43)       -176.0468         estimate D2E/DX2                !
 ! D59   D(4,13,22,23)         179.2388         estimate D2E/DX2                !
 ! D60   D(4,13,22,24)         -56.6556         estimate D2E/DX2                !
 ! D61   D(10,13,22,23)         -7.222          estimate D2E/DX2                !
 ! D62   D(10,13,22,24)        116.8836         estimate D2E/DX2                !
 ! D63   D(4,14,43,17)        -174.1191         estimate D2E/DX2                !
 ! D64   D(4,14,43,19)          10.8502         estimate D2E/DX2                !
 ! D65   D(4,14,43,20)          74.9133         estimate D2E/DX2                !
 ! D66   D(4,14,43,44)         -85.4295         estimate D2E/DX2                !
 ! D67   D(5,14,43,17)          -9.7557         estimate D2E/DX2                !
 ! D68   D(5,14,43,19)         175.2136         estimate D2E/DX2                !
 ! D69   D(5,14,43,20)        -120.7233         estimate D2E/DX2                !
 ! D70   D(5,14,43,44)          78.9339         estimate D2E/DX2                !
 ! D71   D(5,15,17,37)        -173.8785         estimate D2E/DX2                !
 ! D72   D(5,15,17,43)         -12.5605         estimate D2E/DX2                !
 ! D73   D(41,15,17,37)         -0.5479         estimate D2E/DX2                !
 ! D74   D(41,15,17,43)        160.77           estimate D2E/DX2                !
 ! D75   D(5,15,41,34)         161.6403         estimate D2E/DX2                !
 ! D76   D(17,15,41,34)        -11.6506         estimate D2E/DX2                !
 ! D77   D(10,16,18,19)         -8.2828         estimate D2E/DX2                !
 ! D78   D(10,16,18,39)        174.322          estimate D2E/DX2                !
 ! D79   D(42,16,18,19)        171.0409         estimate D2E/DX2                !
 ! D80   D(42,16,18,39)         -6.3543         estimate D2E/DX2                !
 ! D81   D(10,16,42,31)        169.5362         estimate D2E/DX2                !
 ! D82   D(18,16,42,31)         -9.7549         estimate D2E/DX2                !
 ! D83   D(15,17,37,34)         11.7241         estimate D2E/DX2                !
 ! D84   D(15,17,37,38)        127.7112         estimate D2E/DX2                !
 ! D85   D(15,17,37,45)       -112.3062         estimate D2E/DX2                !
 ! D86   D(43,17,37,34)       -141.0489         estimate D2E/DX2                !
 ! D87   D(43,17,37,38)        -25.0618         estimate D2E/DX2                !
 ! D88   D(43,17,37,45)         94.9208         estimate D2E/DX2                !
 ! D89   D(15,17,43,14)         11.6686         estimate D2E/DX2                !
 ! D90   D(15,17,43,20)        106.7138         estimate D2E/DX2                !
 ! D91   D(15,17,43,28)       -159.2177         estimate D2E/DX2                !
 ! D92   D(15,17,43,44)        -73.5327         estimate D2E/DX2                !
 ! D93   D(37,17,43,14)        164.009          estimate D2E/DX2                !
 ! D94   D(37,17,43,20)       -100.9459         estimate D2E/DX2                !
 ! D95   D(37,17,43,28)         -6.8774         estimate D2E/DX2                !
 ! D96   D(37,17,43,44)         78.8076         estimate D2E/DX2                !
 ! D97   D(16,18,19,13)          6.9761         estimate D2E/DX2                !
 ! D98   D(16,18,19,22)       -161.5852         estimate D2E/DX2                !
 ! D99   D(16,18,19,26)        160.5058         estimate D2E/DX2                !
 ! D100  D(39,18,19,13)       -177.0399         estimate D2E/DX2                !
 ! D101  D(39,18,19,22)         14.3989         estimate D2E/DX2                !
 ! D102  D(39,18,19,26)        -23.5101         estimate D2E/DX2                !
 ! D103  D(16,18,39,31)         18.4234         estimate D2E/DX2                !
 ! D104  D(16,18,39,40)        134.8912         estimate D2E/DX2                !
 ! D105  D(16,18,39,58)       -104.1581         estimate D2E/DX2                !
 ! D106  D(19,18,39,31)       -157.6813         estimate D2E/DX2                !
 ! D107  D(19,18,39,40)        -41.2135         estimate D2E/DX2                !
 ! D108  D(19,18,39,58)         79.7372         estimate D2E/DX2                !
 ! D109  D(16,18,43,14)         -0.8007         estimate D2E/DX2                !
 ! D110  D(16,18,43,20)       -101.2203         estimate D2E/DX2                !
 ! D111  D(16,18,43,28)        170.2298         estimate D2E/DX2                !
 ! D112  D(16,18,43,44)         83.9908         estimate D2E/DX2                !
 ! D113  D(39,18,43,14)       -175.5442         estimate D2E/DX2                !
 ! D114  D(39,18,43,20)         84.0363         estimate D2E/DX2                !
 ! D115  D(39,18,43,28)         -4.5137         estimate D2E/DX2                !
 ! D116  D(39,18,43,44)        -90.7526         estimate D2E/DX2                !
 ! D117  D(18,19,22,23)         -3.5795         estimate D2E/DX2                !
 ! D118  D(18,19,22,24)        123.0004         estimate D2E/DX2                !
 ! D119  D(43,19,22,23)        169.6197         estimate D2E/DX2                !
 ! D120  D(43,19,22,24)        -63.8004         estimate D2E/DX2                !
 ! D121  D(13,19,26,27)         79.9891         estimate D2E/DX2                !
 ! D122  D(13,19,26,28)        -49.1075         estimate D2E/DX2                !
 ! D123  D(18,19,26,27)        -45.791          estimate D2E/DX2                !
 ! D124  D(18,19,26,28)       -174.8876         estimate D2E/DX2                !
 ! D125  D(43,19,26,27)        120.8804         estimate D2E/DX2                !
 ! D126  D(43,19,26,28)         -8.2163         estimate D2E/DX2                !
 ! D127  D(13,19,43,14)         -6.1865         estimate D2E/DX2                !
 ! D128  D(13,19,43,20)       -105.5004         estimate D2E/DX2                !
 ! D129  D(13,19,43,28)        164.7712         estimate D2E/DX2                !
 ! D130  D(13,19,43,44)         78.6503         estimate D2E/DX2                !
 ! D131  D(22,19,43,14)        162.1492         estimate D2E/DX2                !
 ! D132  D(22,19,43,20)         62.8353         estimate D2E/DX2                !
 ! D133  D(22,19,43,28)        -26.8931         estimate D2E/DX2                !
 ! D134  D(22,19,43,44)       -113.014          estimate D2E/DX2                !
 ! D135  D(26,19,43,14)       -165.3016         estimate D2E/DX2                !
 ! D136  D(26,19,43,20)         95.3845         estimate D2E/DX2                !
 ! D137  D(26,19,43,28)          5.6561         estimate D2E/DX2                !
 ! D138  D(26,19,43,44)        -80.4648         estimate D2E/DX2                !
 ! D139  D(24,20,21,30)         -1.5585         estimate D2E/DX2                !
 ! D140  D(24,20,21,71)        178.1473         estimate D2E/DX2                !
 ! D141  D(43,20,21,30)        163.9817         estimate D2E/DX2                !
 ! D142  D(43,20,21,71)        -16.3125         estimate D2E/DX2                !
 ! D143  D(21,20,24,22)       -156.134          estimate D2E/DX2                !
 ! D144  D(21,20,24,25)         87.6177         estimate D2E/DX2                !
 ! D145  D(21,20,24,87)        -31.7468         estimate D2E/DX2                !
 ! D146  D(43,20,24,22)         36.9223         estimate D2E/DX2                !
 ! D147  D(43,20,24,25)        -79.326          estimate D2E/DX2                !
 ! D148  D(43,20,24,87)        161.3094         estimate D2E/DX2                !
 ! D149  D(21,20,43,14)         42.3757         estimate D2E/DX2                !
 ! D150  D(21,20,43,17)        -40.516          estimate D2E/DX2                !
 ! D151  D(21,20,43,19)        127.9294         estimate D2E/DX2                !
 ! D152  D(21,20,43,28)       -142.2071         estimate D2E/DX2                !
 ! D153  D(21,20,43,44)        140.2123         estimate D2E/DX2                !
 ! D154  D(24,20,43,14)       -152.2489         estimate D2E/DX2                !
 ! D155  D(24,20,43,17)        124.8594         estimate D2E/DX2                !
 ! D156  D(24,20,43,19)        -66.6952         estimate D2E/DX2                !
 ! D157  D(24,20,43,28)         23.1684         estimate D2E/DX2                !
 ! D158  D(24,20,43,44)        -54.4122         estimate D2E/DX2                !
 ! D159  D(20,21,71,72)        116.692          estimate D2E/DX2                !
 ! D160  D(20,21,71,73)        -72.5108         estimate D2E/DX2                !
 ! D161  D(30,21,71,72)        -63.5953         estimate D2E/DX2                !
 ! D162  D(30,21,71,73)        107.2018         estimate D2E/DX2                !
 ! D163  D(19,22,24,20)         24.4694         estimate D2E/DX2                !
 ! D164  D(19,22,24,25)        139.8765         estimate D2E/DX2                !
 ! D165  D(19,22,24,87)       -101.7743         estimate D2E/DX2                !
 ! D166  D(23,22,24,20)        145.1344         estimate D2E/DX2                !
 ! D167  D(23,22,24,25)        -99.4584         estimate D2E/DX2                !
 ! D168  D(23,22,24,87)         18.8907         estimate D2E/DX2                !
 ! D169  D(26,22,24,20)        -55.6812         estimate D2E/DX2                !
 ! D170  D(26,22,24,25)         59.7259         estimate D2E/DX2                !
 ! D171  D(26,22,24,87)        178.0751         estimate D2E/DX2                !
 ! D172  D(23,22,26,27)        -18.0986         estimate D2E/DX2                !
 ! D173  D(23,22,26,28)        150.3588         estimate D2E/DX2                !
 ! D174  D(24,22,26,27)       -176.9785         estimate D2E/DX2                !
 ! D175  D(24,22,26,28)         -8.521          estimate D2E/DX2                !
 ! D176  D(20,24,87,88)        119.6244         estimate D2E/DX2                !
 ! D177  D(20,24,87,89)        -61.3058         estimate D2E/DX2                !
 ! D178  D(22,24,87,88)       -120.0991         estimate D2E/DX2                !
 ! D179  D(22,24,87,89)         58.9706         estimate D2E/DX2                !
 ! D180  D(25,24,87,88)         -0.3701         estimate D2E/DX2                !
 ! D181  D(25,24,87,89)        178.6997         estimate D2E/DX2                !
 ! D182  D(19,26,28,29)       -102.3461         estimate D2E/DX2                !
 ! D183  D(19,26,28,43)          9.0268         estimate D2E/DX2                !
 ! D184  D(19,26,28,86)        119.6392         estimate D2E/DX2                !
 ! D185  D(22,26,28,29)        -32.2056         estimate D2E/DX2                !
 ! D186  D(22,26,28,43)         79.1672         estimate D2E/DX2                !
 ! D187  D(22,26,28,86)       -170.2204         estimate D2E/DX2                !
 ! D188  D(27,26,28,29)        136.4337         estimate D2E/DX2                !
 ! D189  D(27,26,28,43)       -112.1935         estimate D2E/DX2                !
 ! D190  D(27,26,28,86)         -1.5811         estimate D2E/DX2                !
 ! D191  D(26,28,43,17)        175.5998         estimate D2E/DX2                !
 ! D192  D(26,28,43,19)         -7.7258         estimate D2E/DX2                !
 ! D193  D(26,28,43,20)        -72.1445         estimate D2E/DX2                !
 ! D194  D(26,28,43,44)         88.523          estimate D2E/DX2                !
 ! D195  D(29,28,43,17)        -66.363          estimate D2E/DX2                !
 ! D196  D(29,28,43,19)        110.3115         estimate D2E/DX2                !
 ! D197  D(29,28,43,20)         45.8928         estimate D2E/DX2                !
 ! D198  D(29,28,43,44)       -153.4397         estimate D2E/DX2                !
 ! D199  D(86,28,43,17)         58.4178         estimate D2E/DX2                !
 ! D200  D(86,28,43,19)       -124.9077         estimate D2E/DX2                !
 ! D201  D(86,28,43,20)        170.6735         estimate D2E/DX2                !
 ! D202  D(86,28,43,44)        -28.6589         estimate D2E/DX2                !
 ! D203  D(32,31,39,18)         92.4534         estimate D2E/DX2                !
 ! D204  D(32,31,39,40)        -23.0338         estimate D2E/DX2                !
 ! D205  D(32,31,39,58)       -144.7224         estimate D2E/DX2                !
 ! D206  D(33,31,39,18)       -140.9782         estimate D2E/DX2                !
 ! D207  D(33,31,39,40)        103.5346         estimate D2E/DX2                !
 ! D208  D(33,31,39,58)        -18.154          estimate D2E/DX2                !
 ! D209  D(42,31,39,18)        -23.6851         estimate D2E/DX2                !
 ! D210  D(42,31,39,40)       -139.1723         estimate D2E/DX2                !
 ! D211  D(42,31,39,58)         99.1391         estimate D2E/DX2                !
 ! D212  D(32,31,42,16)        -98.9601         estimate D2E/DX2                !
 ! D213  D(33,31,42,16)        143.1064         estimate D2E/DX2                !
 ! D214  D(39,31,42,16)         20.673          estimate D2E/DX2                !
 ! D215  D(35,34,37,17)         97.7279         estimate D2E/DX2                !
 ! D216  D(35,34,37,38)        -16.4127         estimate D2E/DX2                !
 ! D217  D(35,34,37,45)       -138.5478         estimate D2E/DX2                !
 ! D218  D(36,34,37,17)       -135.3216         estimate D2E/DX2                !
 ! D219  D(36,34,37,38)        110.5378         estimate D2E/DX2                !
 ! D220  D(36,34,37,45)        -11.5974         estimate D2E/DX2                !
 ! D221  D(41,34,37,17)        -17.9166         estimate D2E/DX2                !
 ! D222  D(41,34,37,38)       -132.0572         estimate D2E/DX2                !
 ! D223  D(41,34,37,45)        105.8077         estimate D2E/DX2                !
 ! D224  D(35,34,41,15)       -101.7177         estimate D2E/DX2                !
 ! D225  D(36,34,41,15)        140.2198         estimate D2E/DX2                !
 ! D226  D(37,34,41,15)         17.7694         estimate D2E/DX2                !
 ! D227  D(17,37,45,46)         64.8498         estimate D2E/DX2                !
 ! D228  D(17,37,45,50)       -174.4863         estimate D2E/DX2                !
 ! D229  D(17,37,45,54)        -55.9819         estimate D2E/DX2                !
 ! D230  D(34,37,45,46)        -52.2517         estimate D2E/DX2                !
 ! D231  D(34,37,45,50)         68.4122         estimate D2E/DX2                !
 ! D232  D(34,37,45,54)       -173.0834         estimate D2E/DX2                !
 ! D233  D(38,37,45,46)       -175.4663         estimate D2E/DX2                !
 ! D234  D(38,37,45,50)        -54.8024         estimate D2E/DX2                !
 ! D235  D(38,37,45,54)         63.702          estimate D2E/DX2                !
 ! D236  D(18,39,58,59)         62.2207         estimate D2E/DX2                !
 ! D237  D(18,39,58,63)        -58.1639         estimate D2E/DX2                !
 ! D238  D(18,39,58,67)       -176.6235         estimate D2E/DX2                !
 ! D239  D(31,39,58,59)        -53.3418         estimate D2E/DX2                !
 ! D240  D(31,39,58,63)       -173.7264         estimate D2E/DX2                !
 ! D241  D(31,39,58,67)         67.814          estimate D2E/DX2                !
 ! D242  D(40,39,58,59)       -176.2959         estimate D2E/DX2                !
 ! D243  D(40,39,58,63)         63.3195         estimate D2E/DX2                !
 ! D244  D(40,39,58,67)        -55.1401         estimate D2E/DX2                !
 ! D245  D(37,45,46,47)        -57.5991         estimate D2E/DX2                !
 ! D246  D(37,45,46,48)         63.7888         estimate D2E/DX2                !
 ! D247  D(37,45,46,49)       -176.9858         estimate D2E/DX2                !
 ! D248  D(50,45,46,47)       -177.2051         estimate D2E/DX2                !
 ! D249  D(50,45,46,48)        -55.8172         estimate D2E/DX2                !
 ! D250  D(50,45,46,49)         63.4081         estimate D2E/DX2                !
 ! D251  D(54,45,46,47)         63.2864         estimate D2E/DX2                !
 ! D252  D(54,45,46,48)       -175.3257         estimate D2E/DX2                !
 ! D253  D(54,45,46,49)        -56.1003         estimate D2E/DX2                !
 ! D254  D(37,45,50,51)         58.7627         estimate D2E/DX2                !
 ! D255  D(37,45,50,52)        178.1191         estimate D2E/DX2                !
 ! D256  D(37,45,50,53)        -62.4074         estimate D2E/DX2                !
 ! D257  D(46,45,50,51)       -179.771          estimate D2E/DX2                !
 ! D258  D(46,45,50,52)        -60.4146         estimate D2E/DX2                !
 ! D259  D(46,45,50,53)         59.0589         estimate D2E/DX2                !
 ! D260  D(54,45,50,51)        -60.0361         estimate D2E/DX2                !
 ! D261  D(54,45,50,52)         59.3203         estimate D2E/DX2                !
 ! D262  D(54,45,50,53)        178.7938         estimate D2E/DX2                !
 ! D263  D(37,45,54,55)         60.8024         estimate D2E/DX2                !
 ! D264  D(37,45,54,56)       -178.8171         estimate D2E/DX2                !
 ! D265  D(37,45,54,57)        -59.7704         estimate D2E/DX2                !
 ! D266  D(46,45,54,55)        -61.1469         estimate D2E/DX2                !
 ! D267  D(46,45,54,56)         59.2335         estimate D2E/DX2                !
 ! D268  D(46,45,54,57)        178.2802         estimate D2E/DX2                !
 ! D269  D(50,45,54,55)        178.7728         estimate D2E/DX2                !
 ! D270  D(50,45,54,56)        -60.8467         estimate D2E/DX2                !
 ! D271  D(50,45,54,57)         58.2            estimate D2E/DX2                !
 ! D272  D(39,58,59,60)        -60.5264         estimate D2E/DX2                !
 ! D273  D(39,58,59,61)         61.2148         estimate D2E/DX2                !
 ! D274  D(39,58,59,62)       -179.2034         estimate D2E/DX2                !
 ! D275  D(63,58,59,60)         60.5913         estimate D2E/DX2                !
 ! D276  D(63,58,59,61)       -177.6675         estimate D2E/DX2                !
 ! D277  D(63,58,59,62)        -58.0857         estimate D2E/DX2                !
 ! D278  D(67,58,59,60)        179.5883         estimate D2E/DX2                !
 ! D279  D(67,58,59,61)        -58.6706         estimate D2E/DX2                !
 ! D280  D(67,58,59,62)         60.9112         estimate D2E/DX2                !
 ! D281  D(39,58,63,64)        -56.2506         estimate D2E/DX2                !
 ! D282  D(39,58,63,65)         64.9627         estimate D2E/DX2                !
 ! D283  D(39,58,63,66)       -175.8808         estimate D2E/DX2                !
 ! D284  D(59,58,63,64)       -178.3735         estimate D2E/DX2                !
 ! D285  D(59,58,63,65)        -57.1602         estimate D2E/DX2                !
 ! D286  D(59,58,63,66)         61.9963         estimate D2E/DX2                !
 ! D287  D(67,58,63,64)         61.7443         estimate D2E/DX2                !
 ! D288  D(67,58,63,65)       -177.0423         estimate D2E/DX2                !
 ! D289  D(67,58,63,66)        -57.8858         estimate D2E/DX2                !
 ! D290  D(39,58,67,68)         58.2398         estimate D2E/DX2                !
 ! D291  D(39,58,67,69)        177.5087         estimate D2E/DX2                !
 ! D292  D(39,58,67,70)        -63.1444         estimate D2E/DX2                !
 ! D293  D(59,58,67,68)       -179.7961         estimate D2E/DX2                !
 ! D294  D(59,58,67,69)        -60.5272         estimate D2E/DX2                !
 ! D295  D(59,58,67,70)         58.8197         estimate D2E/DX2                !
 ! D296  D(63,58,67,68)        -60.9058         estimate D2E/DX2                !
 ! D297  D(63,58,67,69)         58.363          estimate D2E/DX2                !
 ! D298  D(63,58,67,70)        177.7099         estimate D2E/DX2                !
 ! D299  D(21,71,72,74)        174.104          estimate D2E/DX2                !
 ! D300  D(21,71,72,75)         -5.4843         estimate D2E/DX2                !
 ! D301  D(73,71,72,74)          2.8462         estimate D2E/DX2                !
 ! D302  D(73,71,72,75)       -176.7422         estimate D2E/DX2                !
 ! D303  D(21,71,73,76)       -173.5991         estimate D2E/DX2                !
 ! D304  D(21,71,73,77)          4.3797         estimate D2E/DX2                !
 ! D305  D(72,71,73,76)         -2.5322         estimate D2E/DX2                !
 ! D306  D(72,71,73,77)        175.4466         estimate D2E/DX2                !
 ! D307  D(71,72,74,78)         -1.1463         estimate D2E/DX2                !
 ! D308  D(71,72,74,79)        179.3769         estimate D2E/DX2                !
 ! D309  D(75,72,74,78)        178.4429         estimate D2E/DX2                !
 ! D310  D(75,72,74,79)         -1.0339         estimate D2E/DX2                !
 ! D311  D(71,73,76,78)          0.5332         estimate D2E/DX2                !
 ! D312  D(71,73,76,80)        179.813          estimate D2E/DX2                !
 ! D313  D(77,73,76,78)       -177.4387         estimate D2E/DX2                !
 ! D314  D(77,73,76,80)          1.841          estimate D2E/DX2                !
 ! D315  D(72,74,78,76)         -0.9654         estimate D2E/DX2                !
 ! D316  D(72,74,78,85)        179.9884         estimate D2E/DX2                !
 ! D317  D(79,74,78,76)        178.5018         estimate D2E/DX2                !
 ! D318  D(79,74,78,85)         -0.5445         estimate D2E/DX2                !
 ! D319  D(73,76,78,74)          1.2647         estimate D2E/DX2                !
 ! D320  D(73,76,78,85)       -179.6048         estimate D2E/DX2                !
 ! D321  D(80,76,78,74)       -178.034          estimate D2E/DX2                !
 ! D322  D(80,76,78,85)          1.0966         estimate D2E/DX2                !
 ! D323  D(74,78,85,81)          0.2925         estimate D2E/DX2                !
 ! D324  D(76,78,85,81)       -178.7831         estimate D2E/DX2                !
 ! D325  D(82,81,85,78)        -61.2603         estimate D2E/DX2                !
 ! D326  D(83,81,85,78)         61.33           estimate D2E/DX2                !
 ! D327  D(84,81,85,78)       -179.9907         estimate D2E/DX2                !
 ! D328  D(24,87,88,90)        178.8233         estimate D2E/DX2                !
 ! D329  D(24,87,88,91)         -1.0521         estimate D2E/DX2                !
 ! D330  D(89,87,88,90)         -0.2729         estimate D2E/DX2                !
 ! D331  D(89,87,88,91)        179.8517         estimate D2E/DX2                !
 ! D332  D(24,87,89,92)       -178.8328         estimate D2E/DX2                !
 ! D333  D(24,87,89,93)          2.0761         estimate D2E/DX2                !
 ! D334  D(88,87,89,92)          0.2575         estimate D2E/DX2                !
 ! D335  D(88,87,89,93)       -178.8336         estimate D2E/DX2                !
 ! D336  D(87,88,90,94)          0.1678         estimate D2E/DX2                !
 ! D337  D(87,88,90,95)        179.9319         estimate D2E/DX2                !
 ! D338  D(91,88,90,94)       -179.9575         estimate D2E/DX2                !
 ! D339  D(91,88,90,95)         -0.1934         estimate D2E/DX2                !
 ! D340  D(87,89,92,94)         -0.137          estimate D2E/DX2                !
 ! D341  D(87,89,92,96)       -179.4206         estimate D2E/DX2                !
 ! D342  D(93,89,92,94)        178.9383         estimate D2E/DX2                !
 ! D343  D(93,89,92,96)         -0.3454         estimate D2E/DX2                !
 ! D344  D(88,90,94,92)         -0.0399         estimate D2E/DX2                !
 ! D345  D(88,90,94,97)        179.7337         estimate D2E/DX2                !
 ! D346  D(95,90,94,92)       -179.8032         estimate D2E/DX2                !
 ! D347  D(95,90,94,97)         -0.0297         estimate D2E/DX2                !
 ! D348  D(89,92,94,90)          0.0249         estimate D2E/DX2                !
 ! D349  D(89,92,94,97)       -179.7487         estimate D2E/DX2                !
 ! D350  D(96,92,94,90)        179.3073         estimate D2E/DX2                !
 ! D351  D(96,92,94,97)         -0.4663         estimate D2E/DX2                !
 --------------------------------------------------------------------------------
 Trust Radius=3.00D-01 FncErr=5.00D-06 GrdErr=5.00D-06 EigMax=2.50D+02 EigMin=1.00D-04
 Number of steps in this run=    500 maximum allowed number of steps=    582.
 GradGradGradGradGradGradGradGradGradGradGradGradGradGradGradGradGradGrad

 Stoichiometry    C41H46ClN4Ni2O3(2)
 Framework group  C1[X(C41H46ClN4Ni2O3)]
 Deg. of freedom   285
 Full point group                 C1      NOp   1
 Largest Abelian subgroup         C1      NOp   1
 Largest concise Abelian subgroup C1      NOp   1
                         Standard orientation:                         
 ---------------------------------------------------------------------
 Center     Atomic      Atomic             Coordinates (Angstroms)
 Number     Number       Type             X           Y           Z
 ---------------------------------------------------------------------
      1          6           0       -2.649032    1.716496   -2.676528
      2          6           0       -1.729032    2.745272   -2.904538
      3          6           0       -0.407020    2.644742   -2.407473
      4          6           0       -0.079009    1.459453   -1.663344
      5          6           0       -2.251019    0.614228   -1.910480
      6          1           0        0.418973    4.537054   -3.120309
      7          1           0       -3.659042    1.751110   -3.084537
      8          1           0       -2.018041    3.624718   -3.484374
      9          6           0        0.629981    3.614575   -2.575429
     10          6           0        2.150002    2.164711   -1.382075
     11          6           0        1.895993    3.375071   -2.051230
     12          1           0        2.704994    4.098958   -2.164944
     13          7           0        1.165002    1.216902   -1.188141
     14          7           0       -0.999007    0.517727   -1.383418
     15          6           0       -3.002020   -0.604535   -1.667292
     16          6           0        3.391013    1.687213   -0.851647
     17          7           0       -2.495008   -1.558836   -0.935389
     18          7           0        3.455018    0.454678   -0.365466
     19         28           0        1.679016   -0.376210   -0.258625
     20          6           0       -0.101950   -0.612787    1.213646
     21          6           0       -0.849927    0.257918    1.943829
     22          6           0        2.011038   -1.840998    1.006773
     23          1           0        3.062045   -1.901724    1.298805
     24          6           0        0.957066   -1.447012    2.028421
     25          1           0        0.454070   -2.363648    2.405313
     26          6           0        1.517007   -2.537077   -0.120548
     27          1           0        2.210986   -2.902812   -0.882215
     28          6           0        0.141003   -2.993116   -0.169077
     29          1           0       -0.304975   -3.278194    0.790208
     30          1           0       -0.633901    0.246954    3.025835
     31          6           0        5.438034    1.647052    0.034342
     32          1           0        5.401061    2.071027    1.050937
     33          1           0        6.444024    1.770646   -0.382801
     34          6           0       -4.380041   -2.288000   -2.158644
     35          1           0       -4.101068   -2.744924   -3.120213
     36          1           0       -5.447038   -2.449804   -1.960462
     37          6           0       -3.430016   -2.707897   -1.003264
     38          1           0       -2.846028   -3.597181   -1.295425
     39          6           0        4.880024    0.203997   -0.025260
     40          1           0        4.935046   -0.271050    0.969195
     41          8           0       -4.175037   -0.838135   -2.299040
     42          8           0        4.520018    2.432255   -0.801389
     43         28           0       -0.477998   -1.209557   -0.632773
     44         17           0       -0.112058   -1.858773   -2.940160
     45          6           0       -4.152984   -3.021596    0.349056
     46          6           0       -5.080968   -1.863190    0.765967
     47          1           0       -4.521960   -0.919106    0.856048
     48          1           0       -5.904984   -1.707871    0.050838
     49          1           0       -5.537945   -2.081247    1.746188
     50          6           0       -4.977996   -4.314770    0.163316
     51          1           0       -4.334008   -5.161057   -0.131888
     52          1           0       -5.475974   -4.585860    1.108589
     53          1           0       -5.765014   -4.203498   -0.600772
     54          6           0       -3.099959   -3.253544    1.451253
     55          1           0       -2.474950   -2.359405    1.599380
     56          1           0       -3.596937   -3.496626    2.405499
     57          1           0       -2.438970   -4.098795    1.194047
     58          6           0        5.628994   -0.719990   -1.049392
     59          6           0        5.678964   -0.082338   -2.454006
     60          1           0        4.664955    0.086289   -2.849143
     61          1           0        6.218969    0.877649   -2.464940
     62          1           0        6.196943   -0.759011   -3.152370
     63          6           0        4.908984   -2.077085   -1.152073
     64          1           0        4.819006   -2.566141   -0.167601
     65          1           0        3.901975   -1.950487   -1.576170
     66          1           0        5.470964   -2.756723   -1.813435
     67          6           0        7.062006   -0.956491   -0.520200
     68          1           0        7.048028   -1.415529    0.482241
     69          1           0        7.603986   -1.639140   -1.193559
     70          1           0        7.650013   -0.025436   -0.460108
     71          6           0       -1.908930    1.245612    1.618908
     72          6           0       -3.208918    1.082111    2.131097
     73          6           0       -1.625939    2.462981    0.961733
     74          6           0       -4.208917    2.049945    1.952192
     75          1           0       -3.447909    0.174651    2.692973
     76          6           0       -2.603938    3.439811    0.778819
     77          1           0       -0.607946    2.654646    0.618524
     78          6           0       -3.908927    3.236281    1.261047
     79          1           0       -5.204908    1.871342    2.360388
     80          1           0       -2.375945    4.380324    0.271911
     81          6           0       -6.130916    4.094544    1.522278
     82          1           0       -6.629932    3.214119    1.077134
     83          1           0       -6.143890    4.002600    2.623367
     84          1           0       -6.669918    5.004266    1.228418
     85          8           0       -4.801927    4.255058    1.023091
     86          1           0       -0.101021   -3.660912   -0.999431
     87          6           0        1.552099   -0.744856    3.236733
     88          6           0        1.396128   -1.284619    4.525255
     89          6           0        2.288102    0.448007    3.097571
     90          6           0        1.962158   -0.657548    5.644641
     91          1           0        0.825125   -2.209496    4.651157
     92          6           0        2.854133    1.077072    4.210954
     93          1           0        2.397080    0.884050    2.100149
     94          6           0        2.693161    0.526302    5.491487
     95          1           0        1.827180   -1.094595    6.638064
     96          1           0        3.414135    2.007947    4.083047
     97          1           0        3.132185    1.020135    6.363003
 ---------------------------------------------------------------------
 Rotational constants (GHZ):           0.0763959           0.0446008           0.0442894
 General basis read from cards:  (5D, 7F)
 ======================================================================================================
                                       Pseudopotential Parameters
 ======================================================================================================
  Center     Atomic      Valence      Angular      Power
  Number     Number     Electrons     Momentum     of R      Exponent        Coefficient   SO-Coeffient
 ======================================================================================================
    1          6
                                   No pseudopotential on this center.
    2          6
                                   No pseudopotential on this center.
    3          6
                                   No pseudopotential on this center.
    4          6
                                   No pseudopotential on this center.
    5          6
                                   No pseudopotential on this center.
    6          1
                                   No pseudopotential on this center.
    7          1
                                   No pseudopotential on this center.
    8          1
                                   No pseudopotential on this center.
    9          6
                                   No pseudopotential on this center.
   10          6
                                   No pseudopotential on this center.
   11          6
                                   No pseudopotential on this center.
   12          1
                                   No pseudopotential on this center.
   13          7
                                   No pseudopotential on this center.
   14          7
                                   No pseudopotential on this center.
   15          6
                                   No pseudopotential on this center.
   16          6
                                   No pseudopotential on this center.
   17          7
                                   No pseudopotential on this center.
   18          7
                                   No pseudopotential on this center.
   19         28           18
                                      D and up 
                                                     1      469.9324331      -10.00000000    0.00000000
                                                     2       85.4236411      -69.40848050    0.00000000
                                                     2       21.2674984      -12.09510200    0.00000000
                                      S - D
                                                     0      162.1686097        3.00000000    0.00000000
                                                     1      176.5333232       22.02536180    0.00000000
                                                     2       68.9562010      443.01810880    0.00000000
                                                     2       13.5792838      145.56964110    0.00000000
                                      P - D
                                                     0       69.0181506        5.00000000    0.00000000
                                                     1      275.5955596        4.98828240    0.00000000
                                                     2       47.1315453      256.69458530    0.00000000
                                                     2       12.9874075       78.47544500    0.00000000
   20          6
                                   No pseudopotential on this center.
   21          6
                                   No pseudopotential on this center.
   22          6
                                   No pseudopotential on this center.
   23          1
                                   No pseudopotential on this center.
   24          6
                                   No pseudopotential on this center.
   25          1
                                   No pseudopotential on this center.
   26          6
                                   No pseudopotential on this center.
   27          1
                                   No pseudopotential on this center.
   28          6
                                   No pseudopotential on this center.
   29          1
                                   No pseudopotential on this center.
   30          1
                                   No pseudopotential on this center.
   31          6
                                   No pseudopotential on this center.
   32          1
                                   No pseudopotential on this center.
   33          1
                                   No pseudopotential on this center.
   34          6
                                   No pseudopotential on this center.
   35          1
                                   No pseudopotential on this center.
   36          1
                                   No pseudopotential on this center.
   37          6
                                   No pseudopotential on this center.
   38          1
                                   No pseudopotential on this center.
   39          6
                                   No pseudopotential on this center.
   40          1
                                   No pseudopotential on this center.
   41          8
                                   No pseudopotential on this center.
   42          8
                                   No pseudopotential on this center.
   43         28           18
                                      D and up 
                                                     1      469.9324331      -10.00000000    0.00000000
                                                     2       85.4236411      -69.40848050    0.00000000
                                                     2       21.2674984      -12.09510200    0.00000000
                                      S - D
                                                     0      162.1686097        3.00000000    0.00000000
                                                     1      176.5333232       22.02536180    0.00000000
                                                     2       68.9562010      443.01810880    0.00000000
                                                     2       13.5792838      145.56964110    0.00000000
                                      P - D
                                                     0       69.0181506        5.00000000    0.00000000
                                                     1      275.5955596        4.98828240    0.00000000
                                                     2       47.1315453      256.69458530    0.00000000
[...]
 ,-0.00015939,-0.00016747,0.00005232,-0.00000370,-0.00001936,-0.0000055
 2,-0.00001500,-0.00001719,-0.00000887,0.00000115,-0.00000743,0.0000125
 4,0.00001494,0.00000283,0.00005568,-0.00001822,-0.00002046,-0.00004866
 ,0.00000377,-0.00010641,0.00002091,0.00004716,0.00001785,0.00000648,0.
 00001030,0.00001400,0.00000181,0.00000720,0.00000012,0.00000022,-0.000
 00198,-0.00000153,-0.00000230,-0.00000028,0.00000004,0.00000007,0.0000
 1103,-0.00000191,0.00000123,0.00000002,0.00000055,-0.00008094,0.000030
 57,-0.00006198,-0.00001320,-0.00003915,0.00001227,-0.00002674,-0.00000
 759,-0.00001500,0.00015146,0.00005339,0.00005277,-0.00000402,0.0000093
 4,0.00002003,-0.00000255,-0.00001168,-0.00004935,0.00000292,-0.0000034
 7,0.00000162,-0.00000032,-0.00000056,-0.00000087,0.00000143,-0.0000002
 2,-0.00000030,-0.00000157,0.00000076,-0.00000165,0.00000082,0.00000025
 ,0.00000098,-0.00000162,0.00000257,-0.00000040,0.00000076,-0.00000045,
 0.,-0.00000002,-0.00000083,0.00000084,-0.00000197,-0.00000046,-0.00000
 171,-0.00000171,0.00000461,-0.00000059,0.00000247,-0.00000512,-0.00000
 070,-0.00000052,0.00000026,0.00000050,0.00000117,0.00000271,0.00000023
 ,0.00000916,-0.00001278,0.00001462,-0.00000178,0.00000766,0.00000201,0
 .00000344,-0.00000043,0.00000543,0.00000067,0.00000246,-0.00000279,0.0
 0000015,-0.00000014,0.00000413,-0.00000215,-0.00000090,-0.00000331,-0.
 00000742,0.00000112,-0.00000129,0.00000192,0.00000083,0.00001085,0.000
 00395,0.00000343,-0.00000001,-0.00000209,0.00000610,-0.00001273,0.0000
 0016,-0.00001152,0.00000436,0.00000202,0.00000137,0.00000757,0.0000065
 2,0.00000410,-0.00000489,0.00001013,-0.00002371,0.00000041,-0.00000380
 ,0.00000699,-0.00000518,-0.00000944,0.00000080,0.00000530,-0.00000188,
 0.00001106,-0.00000402,0.00000380,-0.00000095,-0.00000034,-0.00000836,
 0.00000255,0.00000249,0.00000104,-0.00000443,-0.00000196,0.00001729,-0
 .00002396,0.00000722,-0.00000228,0.00000110,0.00000071,-0.00000145,0.0
 0000292,-0.00000183,0.00001624,0.00000070,-0.00000655,-0.00000196,-0.0
 0000200,0.00000125,-0.00000169,-0.00000179,0.00000251,-0.00000186,0.00
 000133,-0.00000022,-0.00003215,0.00002885,-0.00000397,0.00000365,0.000
 00052,-0.00001039,-0.00318823,0.00289157,-0.00219477,0.00070495,0.0002
 1496,-0.00016672,-0.00672828,-0.00639521,0.00361544,-0.00247382,0.0027
 1212,0.00260940,0.00041827,-0.00043222,-0.00004660,-0.13322581,-0.2250
 0475,0.02081557,0.00232005,-0.00081686,-0.00010632,-0.00617864,-0.0050
 9418,-0.00203860,-0.00039708,-0.00031182,-0.00008840,0.14692552,0.2334
 4419,-0.00000748,-0.00000288,0.00000044,0.00001914,0.00000361,0.000004
 49,-0.00002901,-0.00002075,-0.00000231,-0.00000580,0.00001429,-0.00000
 564,0.00002813,0.00001825,0.00000714,0.00000145,0.00000013,-0.00000002
 ,0.00000053,0.00000038,-0.00000068,-0.00000055,0.,-0.00000033,0.000033
 11,0.00001651,0.00000533,0.00004753,-0.00001961,0.00002286,-0.00002827
 ,0.00003191,-0.00002132,-0.00000041,0.00000377,-0.00000873,-0.00001074
 ,-0.00001236,0.00000534,-0.00001630,-0.00000707,-0.00001387,-0.0000066
 2,-0.00002799,0.00000971,-0.00014723,-0.00000527,-0.00005182,0.0000062
 3,0.00001345,-0.00000708,0.00002013,-0.00002110,0.00007873,-0.00003179
 ,-0.00001362,0.00002994,0.00011125,-0.00007749,0.00011323,-0.00001276,
 0.00005137,-0.00000496,-0.00005984,0.00000628,0.00009523,0.00001810,0.
 00000438,-0.00001639,-0.00058061,-0.00080281,0.00042649,-0.00015151,-0
 .00021811,-0.00027379,0.00001826,-0.00001413,-0.00000849,-0.00000254,-
 0.00000740,-0.00001077,-0.00001140,-0.00001958,-0.00001706,0.00001342,
 0.00002215,0.00000091,0.00001715,-0.00001259,-0.00000853,-0.00003262,-
 0.00003239,-0.00015016,0.00004380,0.00003729,0.00003009,0.00000338,0.0
 0001441,0.00003688,-0.00000150,-0.00000233,0.00000006,0.00000031,0.000
 00081,-0.00000004,0.00000022,0.00000038,-0.00000012,-0.00000331,-0.000
 00053,-0.00000019,0.00000155,0.00000227,0.00000065,-0.00002748,-0.0000
 0139,-0.00002572,0.00001674,-0.00003237,-0.00001064,0.00000285,0.00000
 545,-0.00000289,0.00013290,0.00003990,0.00005173,0.00001182,0.00000573
 ,0.00001336,-0.00000077,-0.00000106,-0.00002326,0.00000052,-0.00000139
 ,0.00000366,-0.00000039,-0.00000007,-0.00000132,0.00000048,-0.00000001
 ,0.00000119,-0.00000067,0.,0.00000021,0.00000003,-0.00000012,-0.000000
 27,-0.00000061,0.00000061,-0.00000177,0.00000004,0.00000018,0.00000018
 ,0.00000017,0.00000043,0.00000006,-0.00000055,-0.00000043,-0.00000017,
 0.00000131,0.00000237,-0.00000064,0.00000352,-0.00000220,-0.00000230,-
 0.00000217,-0.00000067,-0.00000015,0.00000008,0.00000245,0.00000052,0.
 00001892,-0.00001212,0.00000139,-0.00000836,0.00000980,0.00000395,0.00
 000102,-0.00000118,-0.00000098,0.00000218,0.00000195,-0.00000452,-0.00
 000151,0.00000181,0.00000554,-0.00000889,0.00000075,0.00000468,-0.0000
 0195,0.00000020,-0.00000232,0.00000137,-0.00000134,0.00000304,0.000001
 63,0.00000632,0.00000171,-0.00000026,0.00000381,0.00000341,0.00000138,
 -0.00000253,0.00000024,-0.00000251,0.00000329,0.00000298,0.00000551,-0
 .00000017,-0.00000190,0.00000249,-0.00001631,0.00000390,-0.00000639,0.
 00001079,-0.00000452,-0.00001583,0.00000079,0.00001068,0.00000055,0.00
 000058,0.00000079,0.00000144,-0.00000060,-0.00000177,0.00000232,0.0000
 0535,-0.00000322,-0.00000034,-0.00000203,-0.00000883,-0.00000314,-0.00
 000080,0.00000090,-0.00000047,0.00000137,0.00000005,-0.00000228,0.0000
 0163,-0.00000055,-0.00000058,0.00000009,0.00000104,0.00000005,-0.00000
 008,-0.00000020,0.00000010,0.00000010,-0.00000037,0.00000011,0.,0.0000
 0005,0.00000048,0.00000190,-0.00000163,0.00000724,0.00000236,-0.000011
 75,-0.00188941,-0.00133862,-0.00359150,-0.00011411,-0.00013903,-0.0010
 4589,-0.01418231,-0.02009569,0.00535946,0.00028484,0.00161487,-0.00448
 851,0.00006552,-0.00003622,0.00012821,0.01313903,0.02065505,-0.0554952
 3,0.00049560,0.00008215,0.00105746,0.01556595,0.02207389,0.00170695,0.
 00077149,0.00110980,-0.00007309,-0.01351349,-0.02233677,0.05505573,-0.
 00000320,-0.00000247,0.00000384,-0.00000160,0.00000280,-0.00000115,0.0
 0000246,0.00000199,-0.00000142,0.00000237,0.00000175,-0.00000429,-0.00
 001090,-0.00000240,-0.00000124,-0.00000057,0.00000088,-0.00000050,-0.0
 0000028,-0.00000038,-0.00000125,0.00000030,0.00000013,-0.00000185,-0.0
 0000808,0.00000129,-0.00000107,0.00000143,0.00000912,-0.00000642,0.000
 00933,-0.00000665,0.00000396,0.00000099,0.00000019,-0.00000011,-0.0000
 1031,0.00000429,0.00000197,0.00000672,-0.00000380,0.00000411,0.0000138
 6,0.00000579,0.00000127,0.00000456,-0.00000750,0.00000488,-0.00000119,
 -0.00000125,0.00000332,-0.00000937,0.00000849,-0.00000685,0.00001302,-
 0.00000873,0.00001754,0.00003040,0.00000061,-0.00013980,-0.00000580,0.
 00003655,0.00000733,0.00000756,-0.00005278,0.00009371,-0.00001348,0.00
 000526,0.00000298,-0.00060811,0.00046013,-0.00002185,0.00002750,0.0000
 3508,0.00001874,-0.00002738,-0.00000897,0.00000555,-0.00000177,0.00001
 694,-0.00000329,0.00001441,-0.00000932,0.00000196,0.00000146,0.0000060
 5,0.00000233,0.00002822,-0.00002673,0.00000233,0.00000354,-0.00000505,
 0.00000831,0.00000089,-0.00000242,0.00000007,0.00000033,-0.00000042,0.
 00000071,0.00000161,0.00000272,-0.00000055,0.00000013,-0.00000084,-0.0
 0000014,-0.00000120,-0.00000050,-0.00000016,0.00000158,0.00000402,-0.0
 0000081,-0.00000006,0.00000026,0.00000048,0.00001026,-0.00000514,0.000
 01345,-0.00000285,0.00000392,-0.00000320,-0.00001301,-0.00000384,-0.00
 000470,-0.00000421,0.00000765,-0.00000737,-0.00001922,0.00002874,0.000
 00931,-0.00000099,-0.00000701,-0.00002085,0.00000221,-0.00000212,-0.00
 000004,-0.00000052,-0.00000029,-0.00000062,0.00000083,-0.00000025,-0.0
 0000123,-0.00000069,0.00000062,-0.00000048,-0.00000045,-0.00000086,0.0
 0000109,-0.00000088,0.00000111,0.00000009,0.00000001,0.00000068,0.0000
 0046,-0.00000001,-0.00000082,0.00000061,-0.00000060,-0.00000012,-0.000
 00081,-0.00000102,0.00000154,-0.00000164,0.00000126,-0.00000297,0.0000
 0022,0.00000050,-0.00000070,0.00000042,0.00000014,0.00000236,0.0000016
 2,-0.00000153,0.00000169,-0.00000234,0.00000012,-0.00000112,0.00000007
 ,-0.00000097,0.00000011,-0.00000029,0.00000041,0.00000062,0.00000024,0
 .00000047,-0.00000046,-0.00000111,-0.00000066,-0.00000116,0.00000197,-
 0.00000028,0.00000188,-0.00000127,-0.00000073,0.00000046,0.00000052,0.
 00000126,-0.00000046,-0.00000094,0.00000005,-0.00000129,0.00000360,-0.
 00000032,0.00000252,-0.00000181,-0.00000016,-0.00000076,-0.00000183,-0
 .00000039,0.00000007,0.00000095,0.00000436,-0.00001562,-0.00000343,-0.
 00000084,0.00000581,0.00000302,-0.00000440,0.00000339,-0.00000103,-0.0
 0000224,0.00000475,0.00000438,0.00000064,-0.00000352,-0.00000221,0.000
 00081,0.00000308,0.00000246,0.00000009,-0.00000256,-0.00000366,0.00000
 020,-0.00000387,-0.00000187,-0.00000268,-0.00000030,-0.00000189,-0.000
 00076,0.00000031,-0.00000165,0.00000178,-0.00000038,-0.00000561,0.0000
 0012,0.00000064,0.00000083,-0.00000060,-0.00000044,0.00000212,-0.00000
 036,-0.00000020,0.,-0.00000543,0.00000607,0.00000210,0.00000130,-0.000
 00090,-0.00000219,-0.00073984,0.00021520,0.00053228,0.00308586,-0.0054
 8793,0.00089533,0.00437597,-0.00308522,0.00091578,-0.00242415,-0.00608
 196,-0.01454982,-0.00008042,-0.00043729,-0.00071743,0.00501747,0.00226
 015,0.00596529,0.00026407,0.00001491,0.00027998,-0.07858778,-0.0530085
 2,-0.08343586,-0.00217768,0.00242471,0.00033463,-0.00223115,0.00210225
 ,0.00000141,0.07406821,-0.00000092,0.00000014,-0.00000101,0.00000257,0
 .,-0.00000049,-0.00000318,-0.00000165,-0.00000033,-0.00000054,0.000004
 91,0.00000304,0.00000676,0.00000222,0.00000332,-0.00000009,0.00000062,
 0.00000042,-0.00000041,0.00000031,0.00000004,-0.00000022,0.00000096,0.
 00000059,0.00000661,0.00000035,0.00000034,0.00000321,-0.00000472,0.000
 00512,-0.00000444,0.00000561,-0.00000382,-0.00000035,0.00000085,0.0000
 0040,0.00000209,0.00000006,-0.00000151,-0.00000404,-0.00000140,-0.0000
 0306,0.00000749,-0.00000380,0.00000804,-0.00001151,0.00002743,-0.00001
 231,-0.00000476,0.00000061,-0.00000342,-0.00000382,-0.00002133,0.00004
 074,-0.00001871,-0.00000794,-0.00003218,-0.00001767,-0.00000147,0.0001
 2022,-0.00000815,0.00000085,-0.00003561,-0.00005489,0.00002279,-0.0000
 9111,0.00001798,-0.00000425,-0.00000834,0.00053837,-0.00021225,-0.0001
 2979,0.00001907,0.00004571,0.00003559,0.00004686,0.00000059,-0.0000110
 6,-0.00000007,-0.00002225,-0.00000621,-0.00000918,0.00000831,-0.000000
 18,0.00000650,0.00000457,0.00000610,0.00001390,-0.00001573,-0.00000051
 ,-0.00000090,0.00000585,0.00000093,-0.00000129,0.00000046,0.00000010,0
 .00000058,0.00000097,-0.00000107,0.00000110,0.00000275,0.00000006,-0.0
 0000002,-0.00000070,-0.00000105,-0.00000078,0.,0.00000025,-0.00000132,
 0.00000394,-0.00000035,0.00000076,-0.00000009,0.00000019,-0.00000253,0
 .00000670,-0.00000979,0.00000240,-0.00000172,0.00000216,-0.00000984,-0
 .00000261,-0.00000589,0.00000837,-0.00000623,-0.00000161,0.00001151,-0
 .00001459,0.00000524,0.00000077,-0.00000153,-0.00001163,0.00000243,-0.
 00000261,0.00000214,-0.00000016,-0.00000007,-0.00000128,0.00000064,-0.
 00000020,0.00000085,-0.00000117,0.00000026,-0.00000105,0.00000105,0.00
 000029,0.00000031,-0.00000100,0.00000178,-0.00000133,0.00000052,-0.000
 00051,-0.00000006,0.00000019,-0.00000015,0.00000050,-0.00000143,-0.000
 00049,-0.00000103,-0.00000085,0.00000421,-0.00000222,-0.00000009,-0.00
 000368,0.00000328,0.00000184,0.00000140,-0.00000013,0.00000042,0.00000
 025,0.00000005,-0.00000086,-0.00000134,0.00000347,0.00000081,0.0000006
 0,0.00000031,0.00000046,0.,0.00000131,-0.00000055,0.00000011,0.0000001
 7,0.00000002,-0.00000048,-0.00000024,0.00000169,0.00000037,-0.00000286
 ,-0.00000274,0.00000051,0.00000028,-0.00000054,-0.00000029,0.00000336,
 0.00000102,-0.00000024,-0.00000095,0.00000032,0.00000138,-0.00000425,-
 0.00000049,-0.00000112,0.00000160,0.00000081,-0.00000058,0.00000041,0.
 00000021,0.00000038,0.00000013,0.00000239,-0.00000378,-0.00000109,-0.0
 0000025,-0.00000150,-0.00000385,-0.00000307,-0.00000085,0.00000301,-0.
 00000089,0.00000646,-0.00000412,0.00000314,-0.00000032,0.00000047,-0.0
 0000598,0.00000005,-0.00000012,0.00000011,0.00000028,0.00000245,0.0000
 1231,-0.00001389,0.00000536,-0.00000107,0.00000071,0.00000088,0.000000
 06,0.00000134,0.00000018,0.00001175,0.00000101,-0.00000362,-0.00000152
 ,-0.00000181,0.00000044,-0.00000087,-0.00000086,0.00000125,-0.00000102
 ,0.00000093,0.,-0.00002052,0.00001555,-0.00000245,0.00000005,0.0000010
 1,-0.00000291,0.00018779,-0.00073086,0.00061765,-0.00540355,-0.0008316
 5,0.00186073,-0.00313989,0.00181337,0.00232161,-0.00794425,-0.00584230
 ,-0.02055998,-0.00053416,-0.00034409,-0.00098788,0.00410687,0.00755558
 ,0.01050743,0.00009797,0.00029918,0.00051557,-0.05304868,-0.09817841,-
 0.09532104,0.00245880,-0.00047993,-0.00004093,0.00208596,-0.00073197,-
 0.00054620,0.06059870,0.09764366,-0.00000304,-0.00000631,0.00000547,-0
 .00000773,0.00000536,-0.00000628,0.00001326,0.00001292,-0.00000271,0.0
 0001243,0.00000406,0.00000502,-0.00003073,-0.00001073,-0.00000395,-0.0
 0000248,0.00000226,-0.00000118,-0.00000156,-0.00000030,-0.00000142,-0.
 00000010,0.00000183,-0.00000189,-0.00002719,-0.00000280,-0.00000569,-0
 .00002200,0.00002411,-0.00000720,0.00002671,-0.00002256,0.00001757,0.0
 0000177,0.00000114,-0.00000024,0.00000055,0.00000477,-0.00002386,0.000
 01846,-0.00000502,0.00001058,0.00003850,0.00002329,0.00000638,-0.00000
 756,-0.00014307,0.00006160,-0.00001626,-0.00001359,0.00000430,0.000057
 39,0.00005024,-0.00013039,-0.00002266,-0.00001295,0.00008256,-0.000021
 58,-0.00002867,0.00005565,-0.00002164,-0.00001759,-0.00004603,-0.00004
 245,-0.00006082,-0.00001498,-0.00001227,0.00003869,-0.00000017,0.00006
 163,-0.00003983,0.00004837,-0.00003337,-0.00004053,-0.00005074,0.00003
 912,0.00001560,0.00000425,0.00000058,-0.00001352,-0.00000481,-0.000018
 56,0.00001244,-0.00000976,0.00000827,0.00000149,0.00000237,0.00003146,
 -0.00000539,-0.00001286,-0.00001828,0.00000263,-0.00000957,-0.00000739
 ,-0.00000660,0.00000249,0.00000498,0.00000233,-0.00000656,0.00000298,0
 .00001101,-0.00000008,0.00000035,-0.00000303,-0.00000148,-0.00000321,-
 0.00000101,-0.00000035,0.00000543,0.00001596,-0.00000363,0.00000028,-0
 .00000173,-0.00000015,-0.00004299,0.00001581,0.00000707,-0.00002854,0.
 00000805,0.00000710,-0.00003966,-0.00001546,-0.00001527,0.00005722,0.0
 0004818,0.00001093,-0.00000054,0.00000612,0.00002836,-0.00000245,-0.00
 001433,-0.00004145,0.00000212,-0.00000300,-0.00000281,0.00000023,-0.00
 000067,0.00000028,0.00000192,-0.00000033,-0.00000116,-0.00000106,0.000
 00037,-0.00000145,-0.00000036,-0.00000025,0.00000182,-0.00000143,0.000
 00231,0.00000190,0.00000071,-0.00000024,-0.00000025,-0.00000080,-0.000
 00166,0.00000122,-0.00000124,-0.00000015,-0.00000153,-0.00000140,0.000
 00370,0.00000029,0.00000248,-0.00000249,-0.00000201,-0.00000147,-0.000
 00099,0.00000176,0.00000077,0.00000206,-0.00000027,-0.00000643,0.00000
 803,0.00000288,0.00000526,-0.00000641,-0.00000246,0.00000089,0.0000005
 9,0.00000476,-0.00000074,0.00000217,0.00000071,0.00000171,-0.00000130,
 -0.00000350,0.00000392,-0.00000229,-0.00000402,-0.00000530,0.00000419,
 -0.00000019,-0.00000077,0.00000177,0.00000719,0.00000379,-0.00000212,-
 0.00000327,-0.00000132,-0.00000219,-0.00000819,-0.00000263,-0.00000176
 ,0.00000188,0.00000380,-0.00000195,0.00000034,0.00000115,0.00000338,-0
 .00000072,0.00001639,-0.00002155,0.00000501,-0.00000113,0.00000646,-0.
 00000672,-0.00000068,0.00000480,0.00000168,-0.00000468,0.00001313,0.00
 000037,0.00000244,-0.00000285,-0.00000052,-0.00000979,0.00000078,0.000
 00448,-0.00000041,-0.00000723,0.00000158,0.00001944,-0.00002507,0.0000
 0602,-0.00000364,0.00000087,-0.00000016,-0.00000120,0.00000217,-0.0000
 0302,0.00001731,0.00000058,-0.00000968,-0.00000194,-0.00000160,0.00000
 163,-0.00000200,-0.00000201,0.00000371,-0.00000214,0.00000119,-0.00000
 023,-0.00003525,0.00003036,-0.00000197,-0.00000168,-0.00000120,-0.0000
 0564,0.00055832,0.00067073,0.00012559,0.00018168,0.00086269,0.00138444
 ,0.00159541,0.00327307,-0.00314759,0.00264453,0.00347887,0.00493772,0.
 00012535,0.00019784,0.00011127,-0.01110606,-0.01353126,-0.01589770,-0.
 00055351,-0.00065016,-0.00079338,-0.08353043,-0.09534008,-0.23319414,0
 .00009322,-0.00036250,0.00062108,0.00023929,-0.00021514,0.00111759,0.0
 8981028,0.10177388,0.24478796\\0.00001009,0.00001226,0.00000939,-0.000
 00920,0.00000670,-0.00000276,0.00000725,-0.00002013,0.00002038,-0.0000
 2765,0.00002444,-0.00002706,-0.00002965,0.00001271,-0.00002939,-0.0000
 0172,-0.00000002,-0.00000214,-0.00000049,-0.00000859,0.00000218,-0.000
 00013,-0.00000225,-0.00000252,0.00000383,0.00000648,0.00000398,0.00000
 450,0.00003239,0.00001216,-0.00000613,0.00000689,-0.00001118,0.0000036
 2,-0.00000194,0.00000757,0.00000465,-0.00004208,-0.00000160,0.00002366
 ,-0.00003580,-0.00000003,0.00002851,-0.00000949,0.00003668,-0.00006696
 ,-0.00008833,0.00000044,0.00006294,0.00001366,-0.00005539,0.00007134,0
 .00005764,-0.00005451,-0.00005744,-0.00011150,-0.00005301,0.00002149,-
 0.00006155,0.00014570,0.00000854,0.00001506,-0.00006357,-0.00001407,0.
 00002355,-0.00001202,-0.00000451,0.00000613,-0.00001337,-0.00004168,-0
 .00000959,-0.00001539,0.00001053,0.00000373,0.00000187,0.00000368,0.00
 000422,0.00000749,0.00000982,0.00001850,0.00000246,0.00005238,0.000060
 99,0.00002065,-0.00001750,-0.00001269,-0.00001793,-0.00001123,0.000006
 50,0.00000628,-0.00001212,0.00002601,0.00002671,-0.00000019,0.00000618
 ,-0.00001304,0.00000367,0.00000943,-0.00001907,-0.00001796,-0.00001907
 ,-0.00002827,-0.00000342,0.00000605,0.00000533,0.00000713,0.00000586,0
 .00001773,-0.00000663,-0.00000072,0.00008098,0.00001186,0.00001261,0.0
 0000770,0.00000353,-0.00002998,0.00000539,-0.00000590,-0.00000172,-0.0
 0000037,-0.00002225,0.00001073,-0.00001792,0.00005092,0.00004308,0.000
 00519,-0.00009678,0.00002753,-0.00002666,0.00003089,-0.00005004,0.0000
 0875,0.00000483,0.00001487,-0.00001063,0.00000973,0.00000563,-0.000000
 21,-0.00000128,-0.00001806,-0.00001549,-0.00000396,0.00000210,-0.00000
 301,0.00000261,-0.00000845,-0.00000467,-0.00001199,-0.00002098,-0.0000
 1830,0.00000486,-0.00000028,0.00000127,0.00000621,0.00000169,0.0000016
 8,-0.00000002,-0.00000311,0.00000088,0.00001024,-0.00001120,-0.0000053
 2,0.00001081,0.00000352,-0.00000831,0.00000005,0.00000504,0.00000188,-
 0.00000461,-0.00000057,-0.00000149,0.00000069,0.00002722,0.00000416,-0
 .00000530,0.00000633,-0.00000991,-0.00000539,0.00000676,0.00001321,-0.
 00000458,-0.00000757,0.00001549,0.00000430,0.00000504,0.00000743,-0.00
 000300,-0.00001069,0.00000538,0.00000943,0.00000498,0.00000027,0.00001
 306,-0.00000399,0.00001908,0.00000041,0.00000182,-0.00000102,0.0000086
 3,-0.00000186,0.00000588,-0.00000198,0.00000246,-0.00000075,-0.0000050
 7,0.00000321,0.00000036,0.00000284,-0.00000615,-0.00000549,0.00002424,
 0.00002094,0.00002117,0.00000204,0.00000676,0.00002503,-0.00000025,0.0
 0000607,-0.00000984,-0.00001872,0.00000807,-0.00002572,-0.00000700,-0.
 00000123,-0.00000198,-0.00002381,0.00001546,-0.00001845,-0.00001444,0.
 00000029,0.00001393,0.00005392,-0.00007447,0.00002127,-0.00000097,0.00
 000174,-0.00000201,0.00000214,-0.00000600,0.00000099,-0.00004918,-0.00
 001694,0.00003463,0.00000610,0.00000184,-0.00000467,0.00000237,-0.0000
 0159,-0.00000822,0.00000367,-0.00000017,-0.00000382,0.00000078,0.00005
 758,-0.00004569,0.00000056,0.00001936,0.00001118,0.00000851,-0.0000057
 4,0.00002327,-0.00000543,-0.00000728,0.00000017,-0.00000031,0.00000221
 ,-0.00000820,-0.00000384,0.00000237,-0.00000281,-0.00000084,0.00000073
 ,0.00000053,0.00000237,0.00000620,0.00000307,0.00000459,0.00000538,0.0
 0000838,-0.00000271,0.00000398,0.00000241,-0.00000034,0.00000317,0.000
 00139,-0.00000235,0.00000041,0.00000109,-0.00000385,-0.00000075,0.0000
 0277\\\@


 Sometimes the fool who rushes in gets the job done.
                                    -- Al Bernstein
 Job cpu time:       1 days 18 hours 27 minutes  9.9 seconds.
 Elapsed time:       0 days  3 hours 34 minutes 28.3 seconds.
 File lengths (MBytes):  RWF=  18854 Int=      0 D2E=      0 Chk=    135 Scr=      1
 Normal termination of Gaussian 16 at Fri May 20 22:30:14 2022.
