 Entering Gaussian System, Link 0=g16
 Input=Pro_R_E_tsd1_4_m06l.com
 Output=Pro_R_E_tsd1_4_m06l.log
 Initial command:
 /apps/gaussian16/B.01/AVX2/g16/l1.exe "/tmp/51822071/Gau-6548.inp" -scrdir="/tmp/51822071/"
 Entering Link 1 = /apps/gaussian16/B.01/AVX2/g16/l1.exe PID=      6549.
  
 Copyright (c) 1988-2017, Gaussian, Inc.  All Rights Reserved.
  
 This is part of the Gaussian(R) 16 program.  It is based on
 the Gaussian(R) 09 system (copyright 2009, Gaussian, Inc.),
 the Gaussian(R) 03 system (copyright 2003, Gaussian, Inc.),
 the Gaussian(R) 98 system (copyright 1998, Gaussian, Inc.),
 the Gaussian(R) 94 system (copyright 1995, Gaussian, Inc.),
 the Gaussian 92(TM) system (copyright 1992, Gaussian, Inc.),
 the Gaussian 90(TM) system (copyright 1990, Gaussian, Inc.),
 the Gaussian 88(TM) system (copyright 1988, Gaussian, Inc.),
 the Gaussian 86(TM) system (copyright 1986, Carnegie Mellon
 University), and the Gaussian 82(TM) system (copyright 1983,
 Carnegie Mellon University). Gaussian is a federally registered
 trademark of Gaussian, Inc.
  
 This software contains proprietary and confidential information,
 including trade secrets, belonging to Gaussian, Inc.
  
 This software is provided under written license and may be
 used, copied, transmitted, or stored only in accord with that
 written license.
  
 The following legend is applicable only to US Government
 contracts under FAR:
  
                    RESTRICTED RIGHTS LEGEND
  
 Use, reproduction and disclosure by the US Government is
 subject to restrictions as set forth in subparagraphs (a)
 and (c) of the Commercial Computer Software - Restricted
 Rights clause in FAR 52.227-19.
  
 Gaussian, Inc.
 340 Quinnipiac St., Bldg. 40, Wallingford CT 06492
  
  
 ---------------------------------------------------------------
 Warning -- This program may not be used in any manner that
 competes with the business of Gaussian, Inc. or will provide
 assistance to any competitor of Gaussian, Inc.  The licensee
 of this program is prohibited from giving any competitor of
 Gaussian, Inc. access to this program.  By using this program,
 the user acknowledges that Gaussian, Inc. is engaged in the
 business of creating and licensing software in the field of
 computational chemistry and represents and warrants to the
 licensee that it is not a competitor of Gaussian, Inc. and that
 it will not use this program in any manner prohibited above.
 ---------------------------------------------------------------
  

 Cite this work as:
 Gaussian 16, Revision B.01,
 M. J. Frisch, G. W. Trucks, H. B. Schlegel, G. E. Scuseria, 
 M. A. Robb, J. R. Cheeseman, G. Scalmani, V. Barone, 
 G. A. Petersson, H. Nakatsuji, X. Li, M. Caricato, A. V. Marenich, 
 J. Bloino, B. G. Janesko, R. Gomperts, B. Mennucci, H. P. Hratchian, 
 J. V. Ortiz, A. F. Izmaylov, J. L. Sonnenberg, D. Williams-Young, 
 F. Ding, F. Lipparini, F. Egidi, J. Goings, B. Peng, A. Petrone, 
 T. Henderson, D. Ranasinghe, V. G. Zakrzewski, J. Gao, N. Rega, 
 G. Zheng, W. Liang, M. Hada, M. Ehara, K. Toyota, R. Fukuda, 
 J. Hasegawa, M. Ishida, T. Nakajima, Y. Honda, O. Kitao, H. Nakai, 
 T. Vreven, K. Throssell, J. A. Montgomery, Jr., J. E. Peralta, 
 F. Ogliaro, M. J. Bearpark, J. J. Heyd, E. N. Brothers, K. N. Kudin, 
 V. N. Staroverov, T. A. Keith, R. Kobayashi, J. Normand, 
 K. Raghavachari, A. P. Rendell, J. C. Burant, S. S. Iyengar, 
 J. Tomasi, M. Cossi, J. M. Millam, M. Klene, C. Adamo, R. Cammi, 
 J. W. Ochterski, R. L. Martin, K. Morokuma, O. Farkas, 
 J. B. Foresman, and D. J. Fox, Gaussian, Inc., Wallingford CT, 2016.
 
 ******************************************
 Gaussian 16:  ES64L-G16RevB.01 20-Dec-2017
                24-Aug-2022 
 ******************************************
 %nprocshared=12
 Will use up to   12 processors via shared memory.
 %mem=24GB
 --------------------------------------------------------------------
 #m06l/gen pseudo=read integral=ultrafine temperature=308 scrf=(read)
 --------------------------------------------------------------------
 1/38=1,40=2,112=308000,172=1/1;
 2/12=2,17=6,18=5,40=1/2;
 3/5=7,11=2,16=1,17=8,25=1,30=1,70=2203,74=-53,75=-5/1,2,3;
 4//1;
 5/5=2,38=5/2;
 6/7=2,8=2,9=2,10=2,28=1/1;
 99/5=1,9=1/99;
 -------------------
 Title Card Required
 -------------------
 Symbolic Z-matrix:
 Charge =  0 Multiplicity = 4
 C                     1.15566  -2.94842   3.23092 
 C                    -0.00374  -2.67217   3.97027 
 C                    -1.06978  -1.93113   3.3837 
 C                    -0.87377  -1.43818   2.03316 
 C                     1.25896  -2.43738   1.92274 
 H                    -2.50442  -1.99637   5.03956 
 H                     1.96824  -3.56119   3.64683 
 H                    -0.11555  -3.05449   4.99676 
 C                    -2.32725  -1.66186   4.00589 
 C                    -3.07991  -0.62178   1.95047 
 C                    -3.33562  -1.02316   3.27828 
 H                    -4.33361  -0.85613   3.70934 
 N                    -1.84612  -0.76915   1.35941 
 N                     0.28058  -1.66894   1.36894 
 C                     2.3248   -2.72446   0.96769 
 C                    -4.06654  -0.12228   1.01886 
 N                     2.39304  -2.13804  -0.19879 
 N                    -3.75078   0.1189   -0.23614 
 Ni                   -1.69879   0.02773  -0.49356 
 C                     0.0946    1.04738  -0.48561 
 C                     1.11987   0.98519   0.50678 
 C                    -1.5334    1.55836  -2.06357 
 H                    -2.53087   1.95883  -2.30047 
 C                    -0.53038   2.2791   -1.17671 
 H                     0.24402   2.80879  -1.79563 
 C                    -0.93      0.50775  -2.74541 
 H                    -1.48296  -0.1494   -3.43324 
 C                     0.49416   0.2934   -2.45017 
 H                     1.17073   1.13626  -2.69025 
 H                     0.77565   0.79404   1.54016 
 C                    -5.99155   0.70055   0.22633 
 H                    -6.13143   1.77995   0.44582 
 H                    -6.98441   0.22822   0.10185 
 C                     3.99293  -3.89476   0.02619 
 H                     3.84908  -4.9388   -0.31541 
 H                     5.05963  -3.7486    0.29042 
 C                     3.44491  -2.83228  -0.97939 
 H                     2.93514  -3.34103  -1.82912 
 C                    -5.00318   0.45071  -0.94926 
 H                    -4.85721   1.3867   -1.53248 
 O                     3.20658  -3.71067   1.23716 
 O                    -5.34936   0.08903   1.38535 
 Ni                    0.66132  -0.87072  -0.455 
 Cl                   -0.78844  -2.4868   -1.49773 
 C                     4.54546  -1.91626  -1.6065 
 C                     5.29854  -1.11928  -0.52291 
 H                     4.6082   -0.46837   0.05083 
 H                     5.82902  -1.77942   0.19574 
 H                     6.0662   -0.46831  -0.9906 
 C                     5.53084  -2.82046  -2.38311 
 H                     5.00743  -3.41422  -3.16295 
 H                     6.29913  -2.2009   -2.89118 
 H                     6.06955  -3.52899  -1.7187 
 C                     3.88091  -0.93936  -2.59518 
 H                     3.18408  -0.26014  -2.06784 
 H                     4.64851  -0.31688  -3.10126 
 H                     3.31169  -1.48226  -3.3797 
 C                    -5.45272  -0.65954  -1.96486 
 C                    -5.71014  -2.00043  -1.24535 
 H                    -4.79117  -2.36961  -0.74545 
 H                    -6.51562  -1.92567  -0.48481 
 H                    -6.0233   -2.7727   -1.9786 
 C                    -4.346    -0.8555   -3.02106 
 H                    -4.13028   0.09287  -3.5586 
 H                    -3.40604  -1.21901  -2.55794 
 H                    -4.66534  -1.60301  -3.77742 
 C                    -6.74047  -0.17717  -2.66979 
 H                    -6.57893   0.79155  -3.18982 
 H                    -7.05953  -0.91807  -3.43219 
 H                    -7.58903  -0.04784  -1.96507 
 C                     2.48121   1.52835   0.4531 
 C                     3.04481   2.17723  -0.67706 
 C                     3.28654   1.4777    1.62976 
 C                     4.32779   2.74771  -0.64595 
 H                     2.46146   2.25883  -1.60548 
 C                     4.5615    2.04118   1.67647 
 H                     2.8826    0.9863    2.53008 
 C                     5.10108   2.68523   0.53557 
 H                     4.71175   3.24703  -1.54687 
 H                     5.16995   2.00062   2.59318 
 C                     6.93929   3.87802  -0.4359 
 H                     7.062     3.19825  -1.3086 
 H                     6.34047   4.76217  -0.74955 
 H                     7.93712   4.21901  -0.10198 
 O                     6.35166   3.21023   0.67552 
 H                     0.90968  -0.67166  -2.79281 
 C                    -1.04009   3.31823  -0.18392 
 C                    -0.21823   4.42492   0.12705 
 C                    -2.29612   3.21917   0.45176 
 C                    -0.63577   5.40293   1.04633 
 H                     0.76564   4.51924  -0.36175 
 C                    -2.72041   4.19877   1.36763 
 H                    -2.9404    2.35481   0.22844 
 C                    -1.89136   5.29387   1.67063 
 H                     0.02297   6.25657   1.27338 
 H                    -3.70702   4.10459   1.84963 
 H                    -2.22302   6.06022   2.38942 
 
 Stoichiometry    C41H46ClN4Ni2O3(4)
 Framework group  C1[X(C41H46ClN4Ni2O3)]
 Deg. of freedom   285
 Full point group                 C1      NOp   1
 Largest Abelian subgroup         C1      NOp   1
 Largest concise Abelian subgroup C1      NOp   1
                         Standard orientation:                         
 ---------------------------------------------------------------------
 Center     Atomic      Atomic             Coordinates (Angstroms)
 Number     Number       Type             X           Y           Z
 ---------------------------------------------------------------------
      1          6           0        1.155659   -2.948423    3.230917
      2          6           0       -0.003742   -2.672165    3.970270
      3          6           0       -1.069784   -1.931127    3.383696
      4          6           0       -0.873767   -1.438176    2.033157
      5          6           0        1.258959   -2.437378    1.922738
      6          1           0       -2.504419   -1.996371    5.039563
      7          1           0        1.968239   -3.561194    3.646834
      8          1           0       -0.115552   -3.054492    4.996759
      9          6           0       -2.327249   -1.661861    4.005890
     10          6           0       -3.079909   -0.621776    1.950465
     11          6           0       -3.335621   -1.023159    3.278276
     12          1           0       -4.333613   -0.856128    3.709339
     13          7           0       -1.846116   -0.769152    1.359412
     14          7           0        0.280575   -1.668942    1.368935
     15          6           0        2.324799   -2.724456    0.967693
     16          6           0       -4.066541   -0.122275    1.018857
     17          7           0        2.393041   -2.138040   -0.198792
     18          7           0       -3.750778    0.118902   -0.236137
     19         28           0       -1.698789    0.027726   -0.493559
     20          6           0        0.094602    1.047378   -0.485605
     21          6           0        1.119866    0.985186    0.506783
     22          6           0       -1.533402    1.558360   -2.063571
     23          1           0       -2.530865    1.958833   -2.300470
     24          6           0       -0.530376    2.279103   -1.176713
     25          1           0        0.244016    2.808791   -1.795631
     26          6           0       -0.929999    0.507749   -2.745413
     27          1           0       -1.482959   -0.149402   -3.433240
     28          6           0        0.494158    0.293396   -2.450165
     29          1           0        1.170725    1.136264   -2.690252
     30          1           0        0.775649    0.794037    1.540159
     31          6           0       -5.991554    0.700552    0.226334
     32          1           0       -6.131433    1.779946    0.445824
     33          1           0       -6.984409    0.228223    0.101846
     34          6           0        3.992930   -3.894757    0.026191
     35          1           0        3.849076   -4.938795   -0.315408
     36          1           0        5.059632   -3.748596    0.290418
     37          6           0        3.444907   -2.832282   -0.979394
     38          1           0        2.935142   -3.341026   -1.829121
     39          6           0       -5.003184    0.450705   -0.949264
     40          1           0       -4.857205    1.386696   -1.532476
     41          8           0        3.206582   -3.710669    1.237164
     42          8           0       -5.349355    0.089026    1.385352
     43         28           0        0.661324   -0.870721   -0.455003
     44         17           0       -0.788435   -2.486796   -1.497727
     45          6           0        4.545457   -1.916260   -1.606501
     46          6           0        5.298545   -1.119283   -0.522910
     47          1           0        4.608202   -0.468365    0.050825
     48          1           0        5.829021   -1.779415    0.195738
     49          1           0        6.066199   -0.468309   -0.990595
     50          6           0        5.530843   -2.820459   -2.383106
     51          1           0        5.007429   -3.414224   -3.162946
     52          1           0        6.299125   -2.200899   -2.891177
     53          1           0        6.069554   -3.528987   -1.718699
     54          6           0        3.880914   -0.939356   -2.595178
     55          1           0        3.184083   -0.260141   -2.067841
     56          1           0        4.648505   -0.316882   -3.101260
     57          1           0        3.311688   -1.482263   -3.379698
     58          6           0       -5.452716   -0.659543   -1.964862
     59          6           0       -5.710141   -2.000429   -1.245353
     60          1           0       -4.791173   -2.369613   -0.745453
     61          1           0       -6.515622   -1.925668   -0.484812
     62          1           0       -6.023303   -2.772701   -1.978603
     63          6           0       -4.346003   -0.855496   -3.021057
     64          1           0       -4.130280    0.092865   -3.558603
     65          1           0       -3.406037   -1.219012   -2.557942
     66          1           0       -4.665341   -1.603008   -3.777416
     67          6           0       -6.740475   -0.177173   -2.669791
     68          1           0       -6.578930    0.791554   -3.189824
     69          1           0       -7.059532   -0.918071   -3.432193
     70          1           0       -7.589035   -0.047835   -1.965073
     71          6           0        2.481210    1.528353    0.453097
     72          6           0        3.044814    2.177233   -0.677055
     73          6           0        3.286539    1.477698    1.629764
     74          6           0        4.327790    2.747714   -0.645953
     75          1           0        2.461458    2.258834   -1.605484
     76          6           0        4.561500    2.041183    1.676468
     77          1           0        2.882598    0.986298    2.530084
     78          6           0        5.101081    2.685231    0.535568
     79          1           0        4.711752    3.247025   -1.546866
     80          1           0        5.169953    2.000617    2.593178
     81          6           0        6.939288    3.878017   -0.435895
     82          1           0        7.061996    3.198249   -1.308597
     83          1           0        6.340469    4.762167   -0.749551
     84          1           0        7.937123    4.219015   -0.101976
     85          8           0        6.351655    3.210235    0.675518
     86          1           0        0.909684   -0.671659   -2.792811
     87          6           0       -1.040093    3.318226   -0.183916
     88          6           0       -0.218229    4.424917    0.127047
     89          6           0       -2.296118    3.219174    0.451763
     90          6           0       -0.635767    5.402930    1.046331
     91          1           0        0.765637    4.519242   -0.361753
     92          6           0       -2.720410    4.198772    1.367632
     93          1           0       -2.940399    2.354806    0.228435
     94          6           0       -1.891358    5.293875    1.670633
     95          1           0        0.022968    6.256569    1.273379
     96          1           0       -3.707023    4.104590    1.849634
     97          1           0       -2.223015    6.060217    2.389424
 ---------------------------------------------------------------------
 Rotational constants (GHZ):           0.0790021           0.0443983           0.0382346
 General basis read from cards:  (5D, 7F)
 ======================================================================================================
                                       Pseudopotential Parameters
 ======================================================================================================
  Center     Atomic      Valence      Angular      Power
  Number     Number     Electrons     Momentum     of R      Exponent        Coefficient   SO-Coeffient
 ======================================================================================================
    1          6
                                   No pseudopotential on this center.
    2          6
                                   No pseudopotential on this center.
    3          6
                                   No pseudopotential on this center.
    4          6
                                   No pseudopotential on this center.
    5          6
                                   No pseudopotential on this center.
    6          1
                                   No pseudopotential on this center.
    7          1
                                   No pseudopotential on this center.
    8          1
                                   No pseudopotential on this center.
    9          6
                                   No pseudopotential on this center.
   10          6
                                   No pseudopotential on this center.
   11          6
                                   No pseudopotential on this center.
   12          1
                                   No pseudopotential on this center.
   13          7
                                   No pseudopotential on this center.
   14          7
                                   No pseudopotential on this center.
   15          6
                                   No pseudopotential on this center.
   16          6
                                   No pseudopotential on this center.
   17          7
                                   No pseudopotential on this center.
   18          7
                                   No pseudopotential on this center.
   19         28           18
                                      D and up 
                                                     1      469.9324331      -10.00000000    0.00000000
                                                     2       85.4236411      -69.40848050    0.00000000
                                                     2       21.2674984      -12.09510200    0.00000000
                                      S - D
                                                     0      162.1686097        3.00000000    0.00000000
                                                     1      176.5333232       22.02536180    0.00000000
                                                     2       68.9562010      443.01810880    0.00000000
                                                     2       13.5792838      145.56964110    0.00000000
                                      P - D
                                                     0       69.0181506        5.00000000    0.00000000
                                                     1      275.5955596        4.98828240    0.00000000
                                                     2       47.1315453      256.69458530    0.00000000
                                                     2       12.9874075       78.47544500    0.00000000
   20          6
                                   No pseudopotential on this center.
   21          6
                                   No pseudopotential on this center.
   22          6
                                   No pseudopotential on this center.
   23          1
                                   No pseudopotential on this center.
   24          6
                                   No pseudopotential on this center.
   25          1
                                   No pseudopotential on this center.
   26          6
                                   No pseudopotential on this center.
   27          1
                                   No pseudopotential on this center.
   28          6
                                   No pseudopotential on this center.
   29          1
                                   No pseudopotential on this center.
   30          1
                                   No pseudopotential on this center.
   31          6
                                   No pseudopotential on this center.
   32          1
                                   No pseudopotential on this center.
   33          1
                                   No pseudopotential on this center.
   34          6
                                   No pseudopotential on this center.
   35          1
                                   No pseudopotential on this center.
   36          1
                                   No pseudopotential on this center.
   37          6
                                   No pseudopotential on this center.
   38          1
                                   No pseudopotential on this center.
   39          6
                                   No pseudopotential on this center.
   40          1
                                   No pseudopotential on this center.
   41          8
                                   No pseudopotential on this center.
   42          8
                                   No pseudopotential on this center.
   43         28           18
                                      D and up 
                                                     1      469.9324331      -10.00000000    0.00000000
                                                     2       85.4236411      -69.40848050    0.00000000
                                                     2       21.2674984      -12.09510200    0.00000000
                                      S - D
                                                     0      162.1686097        3.00000000    0.00000000
                                                     1      176.5333232       22.02536180    0.00000000
                                                     2       68.9562010      443.01810880    0.00000000
                                                     2       13.5792838      145.56964110    0.00000000
                                      P - D
                                                     0       69.0181506        5.00000000    0.00000000
                                                     1      275.5955596        4.98828240    0.00000000
                                                     2       47.1315453      256.69458530    0.00000000
                                                     2       12.9874075       78.47544500    0.00000000
   44         17
                                   No pseudopotential on this center.
   45          6
                                   No pseudopotential on this center.
   46          6
                                   No pseudopotential on this center.
   47          1
                                   No pseudopotential on this center.
   48          1
                                   No pseudopotential on this center.
   49          1
                                   No pseudopotential on this center.
   50          6
                                   No pseudopotential on this center.
   51          1
                                   No pseudopotential on this center.
   52          1
                                   No pseudopotential on this center.
   53          1
                                   No pseudopotential on this center.
   54          6
                                   No pseudopotential on this center.
   55          1
                                   No pseudopotential on this center.
   56          1
                                   No pseudopotential on this center.
   57          1
                                   No pseudopotential on this center.
   58          6
                                   No pseudopotential on this center.
   59          6
                                   No pseudopotential on this center.
   60          1
                                   No pseudopotential on this center.
   61          1
                                   No pseudopotential on this center.
   62          1
                                   No pseudopotential on this center.
   63          6
                                   No pseudopotential on this center.
   64          1
                                   No pseudopotential on this center.
   65          1
                                   No pseudopotential on this center.
   66          1
                                   No pseudopotential on this center.
   67          6
                                   No pseudopotential on this center.
   68          1
                                   No pseudopotential on this center.
   69          1
                                   No pseudopotential on this center.
   70          1
                                   No pseudopotential on this center.
   71          6
                                   No pseudopotential on this center.
   72          6
                                   No pseudopotential on this center.
   73          6
                                   No pseudopotential on this center.
   74          6
                                   No pseudopotential on this center.
   75          1
                                   No pseudopotential on this center.
   76          6
                                   No pseudopotential on this center.
   77          1
                                   No pseudopotential on this center.
   78          6
                                   No pseudopotential on this center.
   79          1
                                   No pseudopotential on this center.
   80          1
                                   No pseudopotential on this center.
   81          6
                                   No pseudopotential on this center.
   82          1
                                   No pseudopotential on this center.
   83          1
                                   No pseudopotential on this center.
   84          1
                                   No pseudopotential on this center.
   85          8
                                   No pseudopotential on this center.
   86          1
                                   No pseudopotential on this center.
   87          6
                                   No pseudopotential on this center.
   88          6
                                   No pseudopotential on this center.
   89          6
                                   No pseudopotential on this center.
   90          6
                                   No pseudopotential on this center.
   91          1
                                   No pseudopotential on this center.
   92          6
                                   No pseudopotential on this center.
   93          1
                                   No pseudopotential on this center.
   94          6
                                   No pseudopotential on this center.
   95          1
                                   No pseudopotential on this center.
   96          1
                                   No pseudopotential on this center.
   97          1
                                   No pseudopotential on this center.
 ======================================================================================================
 There are  2094 symmetry adapted cartesian basis functions of A   symmetry.
 There are  1845 symmetry adapted basis functions of A   symmetry.
  1845 basis functions,  2989 primitive gaussians,  2094 cartesian basis functions
   200 alpha electrons      197 beta electrons
       nuclear repulsion energy      8558.6661685042 Hartrees.
 NAtoms=   97 NActive=   97 NUniq=   97 SFac= 1.00D+00 NAtFMM=   60 NAOKFM=T Big=T
 Integral buffers will be    131072 words long.
 Raffenetti 2 integral format.
 Two-electron integral symmetry is turned on.
 Using the following non-standard input for PCM:
 Eps=4.5
 --- end of non-standard input.
 ------------------------------------------------------------------------------
 Polarizable Continuum Model (PCM)
 =================================
 Model                : PCM.
 Atomic radii         : UFF (Universal Force Field).
 Polarization charges : Total charges.
 Charge compensation  : None.
 Solution method      : On-the-fly selection.
 Cavity type          : Scaled VdW (van der Waals Surface) (Alpha=1.100).
 Cavity algorithm     : GePol (No added spheres)
                        Default sphere list used, NSphG=   97.
                        Lebedev-Laikov grids with approx.  5.0 points / Ang**2.
                        Smoothing algorithm: York/Karplus (Gamma=1.0000).
                        Polarization charges: spherical gaussians, with
                                              point-specific exponents (IZeta= 3).
                        Self-potential: point-specific (ISelfS= 7).
                        Self-field    : sphere-specific E.n sum rule (ISelfD= 2).
 Solvent              : Water, Eps=   4.500000 Eps(inf)=   1.777849
 ------------------------------------------------------------------------------
 One-electron integrals computed using PRISM.
   1 Symmetry operations used in ECPInt.
 ECPInt:  NShTT=  274911 NPrTT=  843013 LenC2=  205079 LenP2D=  412027.
 LDataN:  DoStor=T MaxTD1= 6 Len=  172
 NBasis=  1845 RedAO= T EigKep=  6.02D-06  NBF=  1845
 NBsUse=  1845 1.00D-06 EigRej= -1.00D+00 NBFU=  1845
 ExpMin= 2.40D-02 ExpMax= 6.95D+04 ExpMxC= 2.37D+03 IAcc=3 IRadAn=         5 AccDes= 0.00D+00
 Harris functional with IExCor= 1009 and IRadAn=       5 diagonalized for initial guess.
 HarFok:  IExCor= 1009 AccDes= 0.00D+00 IRadAn=         5 IDoV= 1 UseB2=F ITyADJ=14
 ICtDFT=  3500011 ScaDFX=  1.000000  1.000000  1.000000  1.000000
 FoFCou: FMM=F IPFlag=           0 FMFlag=      100000 FMFlg1=        2001
         NFxFlg=           0 DoJE=T BraDBF=F KetDBF=T FulRan=T
         wScrn=  0.000000 ICntrl=       500 IOpCl=  0 I1Cent=   200000004 NGrid=           0
         NMat0=    1 NMatS0=      1 NMatT0=    0 NMatD0=    1 NMtDS0=    0 NMtDT0=    0
 Petite list used in FoFCou.
 Initial guess <Sx>= 0.0000 <Sy>= 0.0000 <Sz>= 1.5000 <S**2>= 3.7500 S= 1.5000
 Requested convergence on RMS density matrix=1.00D-08 within 128 cycles.
 Requested convergence on MAX density matrix=1.00D-06.
 Requested convergence on             energy=1.00D-06.
 No special actions if energy rises.
 Inv3:  Mode=1 IEnd=    99636507.
 Iteration    1 A*A^-1 deviation from unit magnitude is 3.77D-15 for   1146.
 Iteration    1 A*A^-1 deviation from orthogonality  is 2.11D-15 for   3795   1776.
 Iteration    1 A^-1*A deviation from unit magnitude is 3.55D-15 for   1146.
 Iteration    1 A^-1*A deviation from orthogonality  is 2.00D-15 for   5402    440.
 EnCoef did     7 forward-backward iterations
 EnCoef did   100 forward-backward iterations
 EnCoef did     7 forward-backward iterations
 EnCoef did     6 forward-backward iterations
 EnCoef did   100 forward-backward iterations
 EnCoef did     4 forward-backward iterations
 EnCoef did   100 forward-backward iterations
 EnCoef did     1 forward-backward iterations
 EnCoef did     1 forward-backward iterations
 Restarting incremental Fock formation.
 Error on total polarization charges =  0.01640
 SCF Done:  E(UM06L) =  -2834.17920743     A.U. after   37 cycles
            NFock= 37  Conv=0.22D-08     -V/T= 2.0517
 <Sx>= 0.0000 <Sy>= 0.0000 <Sz>= 1.5000 <S**2>= 3.8956 S= 1.5361
 <L.S>=  0.00000000000    
 Annihilation of the first spin contaminant:
 S**2 before annihilation     3.8956,   after     3.7544

 **********************************************************************

            Population analysis using the SCF Density.

 **********************************************************************

 Orbital symmetries:
 Alpha Orbitals:
       Occupied  (A) (A) (A) (A) (A) (A) (A) (A) (A) (A) (A) (A)
                 (A) (A) (A) (A) (A) (A) (A) (A) (A) (A) (A) (A)
                 (A) (A) (A) (A) (A) (A) (A) (A) (A) (A) (A) (A)
                 (A) (A) (A) (A) (A) (A) (A) (A) (A) (A) (A) (A)
                 (A) (A) (A) (A) (A) (A) (A) (A) (A) (A) (A) (A)
                 (A) (A) (A) (A) (A) (A) (A) (A) (A) (A) (A) (A)
                 (A) (A) (A) (A) (A) (A) (A) (A) (A) (A) (A) (A)
                 (A) (A) (A) (A) (A) (A) (A) (A) (A) (A) (A) (A)
                 (A) (A) (A) (A) (A) (A) (A) (A) (A) (A) (A) (A)
                 (A) (A) (A) (A) (A) (A) (A) (A) (A) (A) (A) (A)
                 (A) (A) (A) (A) (A) (A) (A) (A) (A) (A) (A) (A)
                 (A) (A) (A) (A) (A) (A) (A) (A) (A) (A) (A) (A)
                 (A) (A) (A) (A) (A) (A) (A) (A) (A) (A) (A) (A)
                 (A) (A) (A) (A) (A) (A) (A) (A) (A) (A) (A) (A)
                 (A) (A) (A) (A) (A) (A) (A) (A) (A) (A) (A) (A)
                 (A) (A) (A) (A) (A) (A) (A) (A) (A) (A) (A) (A)
                 (A) (A) (A) (A) (A) (A) (A) (A)
       Virtual   (A) (A) (A) (A) (A) (A) (A) (A) (A) (A) (A) (A)
                 (A) (A) (A) (A) (A) (A) (A) (A) (A) (A) (A) (A)
                 (A) (A) (A) (A) (A) (A) (A) (A) (A) (A) (A) (A)
                 (A) (A) (A) (A) (A) (A) (A) (A) (A) (A) (A) (A)
                 (A) (A) (A) (A) (A) (A) (A) (A) (A) (A) (A) (A)
                 (A) (A) (A) (A) (A) (A) (A) (A) (A) (A) (A) (A)
                 (A) (A) (A) (A) (A) (A) (A) (A) (A) (A) (A) (A)
                 (A) (A) (A) (A) (A) (A) (A) (A) (A) (A) (A) (A)
                 (A) (A) (A) (A) (A) (A) (A) (A) (A) (A) (A) (A)
                 (A) (A) (A) (A) (A) (A) (A) (A) (A) (A) (A) (A)
                 (A) (A) (A) (A) (A) (A) (A) (A) (A) (A) (A) (A)
                 (A) (A) (A) (A) (A) (A) (A) (A) (A) (A) (A) (A)
                 (A) (A) (A) (A) (A) (A) (A) (A) (A) (A) (A) (A)
                 (A) (A) (A) (A) (A) (A) (A) (A) (A) (A) (A) (A)
                 (A) (A) (A) (A) (A) (A) (A) (A) (A) (A) (A) (A)
                 (A) (A) (A) (A) (A) (A) (A) (A) (A) (A) (A) (A)
                 (A) (A) (A) (A) (A) (A) (A) (A) (A) (A) (A) (A)
                 (A) (A) (A) (A) (A) (A) (A) (A) (A) (A) (A) (A)
                 (A) (A) (A) (A) (A) (A) (A) (A) (A) (A) (A) (A)
                 (A) (A) (A) (A) (A) (A) (A) (A) (A) (A) (A) (A)
                 (A) (A) (A) (A) (A) (A) (A) (A) (A) (A) (A) (A)
                 (A) (A) (A) (A) (A) (A) (A) (A) (A) (A) (A) (A)
                 (A) (A) (A) (A) (A) (A) (A) (A) (A) (A) (A) (A)
                 (A) (A) (A) (A) (A) (A) (A) (A) (A) (A) (A) (A)
                 (A) (A) (A) (A) (A) (A) (A) (A) (A) (A) (A) (A)
                 (A) (A) (A) (A) (A) (A) (A) (A) (A) (A) (A) (A)
                 (A) (A) (A) (A) (A) (A) (A) (A) (A) (A) (A) (A)
                 (A) (A) (A) (A) (A) (A) (A) (A) (A) (A) (A) (A)
                 (A) (A) (A) (A) (A) (A) (A) (A) (A) (A) (A) (A)
                 (A) (A) (A) (A) (A) (A) (A) (A) (A) (A) (A) (A)
                 (A) (A) (A) (A) (A) (A) (A) (A) (A) (A) (A) (A)
                 (A) (A) (A) (A) (A) (A) (A) (A) (A) (A) (A) (A)
                 (A) (A) (A) (A) (A) (A) (A) (A) (A) (A) (A) (A)
                 (A) (A) (A) (A) (A) (A) (A) (A) (A) (A) (A) (A)
                 (A) (A) (A) (A) (A) (A) (A) (A) (A) (A) (A) (A)
                 (A) (A) (A) (A) (A) (A) (A) (A) (A) (A) (A) (A)
                 (A) (A) (A) (A) (A) (A) (A) (A) (A) (A) (A) (A)
                 (A) (A) (A) (A) (A) (A) (A) (A) (A) (A) (A) (A)
                 (A) (A) (A) (A) (A) (A) (A) (A) (A) (A) (A) (A)
                 (A) (A) (A) (A) (A) (A) (A) (A) (A) (A) (A) (A)
                 (A) (A) (A) (A) (A) (A) (A) (A) (A) (A) (A) (A)
                 (A) (A) (A) (A) (A) (A) (A) (A) (A) (A) (A) (A)
                 (A) (A) (A) (A) (A) (A) (A) (A) (A) (A) (A) (A)
                 (A) (A) (A) (A) (A) (A) (A) (A) (A) (A) (A) (A)
                 (A) (A) (A) (A) (A) (A) (A) (A) (A) (A) (A) (A)
                 (A) (A) (A) (A) (A) (A) (A) (A) (A) (A) (A) (A)
                 (A) (A) (A) (A) (A) (A) (A) (A) (A) (A) (A) (A)
                 (A) (A) (A) (A) (A) (A) (A) (A) (A) (A) (A) (A)
                 (A) (A) (A) (A) (A) (A) (A) (A) (A) (A) (A) (A)
                 (A) (A) (A) (A) (A) (A) (A) (A) (A) (A) (A) (A)
                 (A) (A) (A) (A) (A) (A) (A) (A) (A) (A) (A) (A)
                 (A) (A) (A) (A) (A) (A) (A) (A) (A) (A) (A) (A)
                 (A) (A) (A) (A) (A) (A) (A) (A) (A) (A) (A) (A)
                 (A) (A) (A) (A) (A) (A) (A) (A) (A) (A) (A) (A)
                 (A) (A) (A) (A) (A) (A) (A) (A) (A) (A) (A) (A)
                 (A) (A) (A) (A) (A) (A) (A) (A) (A) (A) (A) (A)
                 (A) (A) (A) (A) (A) (A) (A) (A) (A) (A) (A) (A)
                 (A) (A) (A) (A) (A) (A) (A) (A) (A) (A) (A) (A)
                 (A) (A) (A) (A) (A) (A) (A) (A) (A) (A) (A) (A)
                 (A) (A) (A) (A) (A) (A) (A) (A) (A) (A) (A) (A)
                 (A) (A) (A) (A) (A) (A) (A) (A) (A) (A) (A) (A)
                 (A) (A) (A) (A) (A) (A) (A) (A) (A) (A) (A) (A)
                 (A) (A) (A) (A) (A) (A) (A) (A) (A) (A) (A) (A)
                 (A) (A) (A) (A) (A) (A) (A) (A) (A) (A) (A) (A)
                 (A) (A) (A) (A) (A) (A) (A) (A) (A) (A) (A) (A)
                 (A) (A) (A) (A) (A) (A) (A) (A) (A) (A) (A) (A)
                 (A) (A) (A) (A) (A) (A) (A) (A) (A) (A) (A) (A)
                 (A) (A) (A) (A) (A) (A) (A) (A) (A) (A) (A) (A)
                 (A) (A) (A) (A) (A) (A) (A) (A) (A) (A) (A) (A)
                 (A) (A) (A) (A) (A) (A) (A) (A) (A) (A) (A) (A)
                 (A) (A) (A) (A) (A) (A) (A) (A) (A) (A) (A) (A)
                 (A) (A) (A) (A) (A) (A) (A) (A) (A) (A) (A) (A)
                 (A) (A) (A) (A) (A) (A) (A) (A) (A) (A) (A) (A)
                 (A) (A) (A) (A) (A) (A) (A) (A) (A) (A) (A) (A)
                 (A) (A) (A) (A) (A) (A) (A) (A) (A) (A) (A) (A)
                 (A) (A) (A) (A) (A) (A) (A) (A) (A) (A) (A) (A)
                 (A) (A) (A) (A) (A) (A) (A) (A) (A) (A) (A) (A)
                 (A) (A) (A) (A) (A) (A) (A) (A) (A) (A) (A) (A)
                 (A) (A) (A) (A) (A) (A) (A) (A) (A) (A) (A) (A)
                 (A) (A) (A) (A) (A) (A) (A) (A) (A) (A) (A) (A)
                 (A) (A) (A) (A) (A) (A) (A) (A) (A) (A) (A) (A)
                 (A) (A) (A) (A) (A) (A) (A) (A) (A) (A) (A) (A)
                 (A) (A) (A) (A) (A) (A) (A) (A) (A) (A) (A) (A)
                 (A) (A) (A) (A) (A) (A) (A) (A) (A) (A) (A) (A)
                 (A) (A) (A) (A) (A) (A) (A) (A) (A) (A) (A) (A)
                 (A) (A) (A) (A) (A) (A) (A) (A) (A) (A) (A) (A)
                 (A) (A) (A) (A) (A) (A) (A) (A) (A) (A) (A) (A)
                 (A) (A) (A) (A) (A) (A) (A) (A) (A) (A) (A) (A)
                 (A) (A) (A) (A) (A) (A) (A) (A) (A) (A) (A) (A)
                 (A) (A) (A) (A) (A) (A) (A) (A) (A) (A) (A) (A)
                 (A) (A) (A) (A) (A) (A) (A) (A) (A) (A) (A) (A)
                 (A) (A) (A) (A) (A) (A) (A) (A) (A) (A) (A) (A)
                 (A) (A) (A) (A) (A) (A) (A) (A) (A) (A) (A) (A)
                 (A) (A) (A) (A) (A) (A) (A) (A) (A) (A) (A) (A)
                 (A) (A) (A) (A) (A) (A) (A) (A) (A) (A) (A) (A)
                 (A) (A) (A) (A) (A) (A) (A) (A) (A) (A) (A) (A)
                 (A) (A) (A) (A) (A) (A) (A) (A) (A) (A) (A) (A)
                 (A) (A) (A) (A) (A) (A) (A) (A) (A) (A) (A) (A)
                 (A) (A) (A) (A) (A) (A) (A) (A) (A) (A) (A) (A)
                 (A) (A) (A) (A) (A) (A) (A) (A) (A) (A) (A) (A)
                 (A) (A) (A) (A) (A) (A) (A) (A) (A) (A) (A) (A)
                 (A) (A) (A) (A) (A) (A) (A) (A) (A) (A) (A) (A)
                 (A) (A) (A) (A) (A) (A) (A) (A) (A) (A) (A) (A)
                 (A) (A) (A) (A) (A) (A) (A) (A) (A) (A) (A) (A)
                 (A) (A) (A) (A) (A) (A) (A) (A) (A) (A) (A) (A)
                 (A) (A) (A) (A) (A) (A) (A) (A) (A) (A) (A) (A)
                 (A) (A) (A) (A) (A) (A) (A) (A) (A) (A) (A) (A)
                 (A) (A) (A) (A) (A) (A) (A) (A) (A) (A) (A) (A)
                 (A) (A) (A) (A) (A) (A) (A) (A) (A) (A) (A) (A)
                 (A) (A) (A) (A) (A) (A) (A) (A) (A) (A) (A) (A)
                 (A) (A) (A) (A) (A) (A) (A) (A) (A) (A) (A) (A)
                 (A) (A) (A) (A) (A) (A) (A) (A) (A) (A) (A) (A)
                 (A) (A) (A) (A) (A) (A) (A) (A) (A) (A) (A) (A)
                 (A) (A) (A) (A) (A) (A) (A) (A) (A) (A) (A) (A)
                 (A) (A) (A) (A) (A) (A) (A) (A) (A) (A) (A) (A)
                 (A) (A) (A) (A) (A) (A) (A) (A) (A) (A) (A) (A)
                 (A) (A) (A) (A) (A) (A) (A) (A) (A) (A) (A) (A)
                 (A) (A) (A) (A) (A) (A) (A) (A) (A) (A) (A) (A)
                 (A) (A) (A) (A) (A) (A) (A) (A) (A) (A) (A) (A)
                 (A) (A) (A) (A) (A) (A) (A) (A) (A) (A) (A) (A)
                 (A) (A) (A) (A) (A) (A) (A) (A) (A) (A) (A) (A)
                 (A) (A) (A) (A) (A) (A) (A) (A) (A) (A) (A) (A)
                 (A) (A) (A) (A) (A) (A) (A) (A) (A) (A) (A) (A)
                 (A) (A) (A) (A) (A) (A) (A) (A) (A) (A) (A) (A)
                 (A) (A) (A) (A) (A) (A) (A) (A) (A) (A) (A) (A)
                 (A) (A) (A) (A) (A) (A) (A) (A) (A) (A) (A) (A)
                 (A) (A) (A) (A) (A) (A) (A) (A) (A) (A) (A) (A)
                 (A) (A) (A) (A) (A) (A) (A) (A) (A) (A) (A) (A)
                 (A) (A) (A) (A) (A) (A) (A) (A) (A) (A) (A) (A)
                 (A) (A) (A) (A) (A) (A) (A) (A) (A) (A) (A) (A)
                 (A) (A) (A) (A) (A) (A) (A) (A) (A) (A) (A) (A)
                 (A) (A) (A) (A) (A) (A) (A) (A) (A) (A) (A) (A)
                 (A) (A) (A) (A) (A) (A) (A) (A) (A) (A) (A) (A)
                 (A) (A) (A) (A) (A) (A) (A) (A) (A) (A) (A) (A)
                 (A) (A) (A) (A) (A) (A) (A) (A) (A) (A) (A) (A)
                 (A) (A) (A) (A) (A) (A) (A) (A) (A) (A) (A) (A)
                 (A) (A) (A) (A) (A) (A) (A) (A) (A) (A) (A) (A)
                 (A)
 Beta  Orbitals:
       Occupied  (A) (A) (A) (A) (A) (A) (A) (A) (A) (A) (A) (A)
                 (A) (A) (A) (A) (A) (A) (A) (A) (A) (A) (A) (A)
                 (A) (A) (A) (A) (A) (A) (A) (A) (A) (A) (A) (A)
                 (A) (A) (A) (A) (A) (A) (A) (A) (A) (A) (A) (A)
                 (A) (A) (A) (A) (A) (A) (A) (A) (A) (A) (A) (A)
                 (A) (A) (A) (A) (A) (A) (A) (A) (A) (A) (A) (A)
                 (A) (A) (A) (A) (A) (A) (A) (A) (A) (A) (A) (A)
                 (A) (A) (A) (A) (A) (A) (A) (A) (A) (A) (A) (A)
                 (A) (A) (A) (A) (A) (A) (A) (A) (A) (A) (A) (A)
                 (A) (A) (A) (A) (A) (A) (A) (A) (A) (A) (A) (A)
                 (A) (A) (A) (A) (A) (A) (A) (A) (A) (A) (A) (A)
                 (A) (A) (A) (A) (A) (A) (A) (A) (A) (A) (A) (A)
                 (A) (A) (A) (A) (A) (A) (A) (A) (A) (A) (A) (A)
                 (A) (A) (A) (A) (A) (A) (A) (A) (A) (A) (A) (A)
                 (A) (A) (A) (A) (A) (A) (A) (A) (A) (A) (A) (A)
                 (A) (A) (A) (A) (A) (A) (A) (A) (A) (A) (A) (A)
                 (A) (A) (A) (A) (A)
       Virtual   (A) (A) (A) (A) (A) (A) (A) (A) (A) (A) (A) (A)
                 (A) (A) (A) (A) (A) (A) (A) (A) (A) (A) (A) (A)
                 (A) (A) (A) (A) (A) (A) (A) (A) (A) (A) (A) (A)
                 (A) (A) (A) (A) (A) (A) (A) (A) (A) (A) (A) (A)
                 (A) (A) (A) (A) (A) (A) (A) (A) (A) (A) (A) (A)
                 (A) (A) (A) (A) (A) (A) (A) (A) (A) (A) (A) (A)
                 (A) (A) (A) (A) (A) (A) (A) (A) (A) (A) (A) (A)
                 (A) (A) (A) (A) (A) (A) (A) (A) (A) (A) (A) (A)
                 (A) (A) (A) (A) (A) (A) (A) (A) (A) (A) (A) (A)
                 (A) (A) (A) (A) (A) (A) (A) (A) (A) (A) (A) (A)
                 (A) (A) (A) (A) (A) (A) (A) (A) (A) (A) (A) (A)
                 (A) (A) (A) (A) (A) (A) (A) (A) (A) (A) (A) (A)
                 (A) (A) (A) (A) (A) (A) (A) (A) (A) (A) (A) (A)
                 (A) (A) (A) (A) (A) (A) (A) (A) (A) (A) (A) (A)
                 (A) (A) (A) (A) (A) (A) (A) (A) (A) (A) (A) (A)
                 (A) (A) (A) (A) (A) (A) (A) (A) (A) (A) (A) (A)
                 (A) (A) (A) (A) (A) (A) (A) (A) (A) (A) (A) (A)
                 (A) (A) (A) (A) (A) (A) (A) (A) (A) (A) (A) (A)
                 (A) (A) (A) (A) (A) (A) (A) (A) (A) (A) (A) (A)
                 (A) (A) (A) (A) (A) (A) (A) (A) (A) (A) (A) (A)
                 (A) (A) (A) (A) (A) (A) (A) (A) (A) (A) (A) (A)
                 (A) (A) (A) (A) (A) (A) (A) (A) (A) (A) (A) (A)
                 (A) (A) (A) (A) (A) (A) (A) (A) (A) (A) (A) (A)
                 (A) (A) (A) (A) (A) (A) (A) (A) (A) (A) (A) (A)
                 (A) (A) (A) (A) (A) (A) (A) (A) (A) (A) (A) (A)
                 (A) (A) (A) (A) (A) (A) (A) (A) (A) (A) (A) (A)
                 (A) (A) (A) (A) (A) (A) (A) (A) (A) (A) (A) (A)
                 (A) (A) (A) (A) (A) (A) (A) (A) (A) (A) (A) (A)
                 (A) (A) (A) (A) (A) (A) (A) (A) (A) (A) (A) (A)
                 (A) (A) (A) (A) (A) (A) (A) (A) (A) (A) (A) (A)
                 (A) (A) (A) (A) (A) (A) (A) (A) (A) (A) (A) (A)
                 (A) (A) (A) (A) (A) (A) (A) (A) (A) (A) (A) (A)
                 (A) (A) (A) (A) (A) (A) (A) (A) (A) (A) (A) (A)
                 (A) (A) (A) (A) (A) (A) (A) (A) (A) (A) (A) (A)
                 (A) (A) (A) (A) (A) (A) (A) (A) (A) (A) (A) (A)
                 (A) (A) (A) (A) (A) (A) (A) (A) (A) (A) (A) (A)
                 (A) (A) (A) (A) (A) (A) (A) (A) (A) (A) (A) (A)
                 (A) (A) (A) (A) (A) (A) (A) (A) (A) (A) (A) (A)
                 (A) (A) (A) (A) (A) (A) (A) (A) (A) (A) (A) (A)
                 (A) (A) (A) (A) (A) (A) (A) (A) (A) (A) (A) (A)
                 (A) (A) (A) (A) (A) (A) (A) (A) (A) (A) (A) (A)
                 (A) (A) (A) (A) (A) (A) (A) (A) (A) (A) (A) (A)
                 (A) (A) (A) (A) (A) (A) (A) (A) (A) (A) (A) (A)
                 (A) (A) (A) (A) (A) (A) (A) (A) (A) (A) (A) (A)
                 (A) (A) (A) (A) (A) (A) (A) (A) (A) (A) (A) (A)
                 (A) (A) (A) (A) (A) (A) (A) (A) (A) (A) (A) (A)
                 (A) (A) (A) (A) (A) (A) (A) (A) (A) (A) (A) (A)
                 (A) (A) (A) (A) (A) (A) (A) (A) (A) (A) (A) (A)
                 (A) (A) (A) (A) (A) (A) (A) (A) (A) (A) (A) (A)
                 (A) (A) (A) (A) (A) (A) (A) (A) (A) (A) (A) (A)
                 (A) (A) (A) (A) (A) (A) (A) (A) (A) (A) (A) (A)
                 (A) (A) (A) (A) (A) (A) (A) (A) (A) (A) (A) (A)
                 (A) (A) (A) (A) (A) (A) (A) (A) (A) (A) (A) (A)
                 (A) (A) (A) (A) (A) (A) (A) (A) (A) (A) (A) (A)
                 (A) (A) (A) (A) (A) (A) (A) (A) (A) (A) (A) (A)
                 (A) (A) (A) (A) (A) (A) (A) (A) (A) (A) (A) (A)
                 (A) (A) (A) (A) (A) (A) (A) (A) (A) (A) (A) (A)
                 (A) (A) (A) (A) (A) (A) (A) (A) (A) (A) (A) (A)
                 (A) (A) (A) (A) (A) (A) (A) (A) (A) (A) (A) (A)
                 (A) (A) (A) (A) (A) (A) (A) (A) (A) (A) (A) (A)
                 (A) (A) (A) (A) (A) (A) (A) (A) (A) (A) (A) (A)
                 (A) (A) (A) (A) (A) (A) (A) (A) (A) (A) (A) (A)
                 (A) (A) (A) (A) (A) (A) (A) (A) (A) (A) (A) (A)
                 (A) (A) (A) (A) (A) (A) (A) (A) (A) (A) (A) (A)
                 (A) (A) (A) (A) (A) (A) (A) (A) (A) (A) (A) (A)
                 (A) (A) (A) (A) (A) (A) (A) (A) (A) (A) (A) (A)
                 (A) (A) (A) (A) (A) (A) (A) (A) (A) (A) (A) (A)
                 (A) (A) (A) (A) (A) (A) (A) (A) (A) (A) (A) (A)
                 (A) (A) (A) (A) (A) (A) (A) (A) (A) (A) (A) (A)
                 (A) (A) (A) (A) (A) (A) (A) (A) (A) (A) (A) (A)
                 (A) (A) (A) (A) (A) (A) (A) (A) (A) (A) (A) (A)
                 (A) (A) (A) (A) (A) (A) (A) (A) (A) (A) (A) (A)
                 (A) (A) (A) (A) (A) (A) (A) (A) (A) (A) (A) (A)
                 (A) (A) (A) (A) (A) (A) (A) (A) (A) (A) (A) (A)
                 (A) (A) (A) (A) (A) (A) (A) (A) (A) (A) (A) (A)
                 (A) (A) (A) (A) (A) (A) (A) (A) (A) (A) (A) (A)
                 (A) (A) (A) (A) (A) (A) (A) (A) (A) (A) (A) (A)
                 (A) (A) (A) (A) (A) (A) (A) (A) (A) (A) (A) (A)
                 (A) (A) (A) (A) (A) (A) (A) (A) (A) (A) (A) (A)
                 (A) (A) (A) (A) (A) (A) (A) (A) (A) (A) (A) (A)
                 (A) (A) (A) (A) (A) (A) (A) (A) (A) (A) (A) (A)
                 (A) (A) (A) (A) (A) (A) (A) (A) (A) (A) (A) (A)
                 (A) (A) (A) (A) (A) (A) (A) (A) (A) (A) (A) (A)
                 (A) (A) (A) (A) (A) (A) (A) (A) (A) (A) (A) (A)
                 (A) (A) (A) (A) (A) (A) (A) (A) (A) (A) (A) (A)
                 (A) (A) (A) (A) (A) (A) (A) (A) (A) (A) (A) (A)
                 (A) (A) (A) (A) (A) (A) (A) (A) (A) (A) (A) (A)
                 (A) (A) (A) (A) (A) (A) (A) (A) (A) (A) (A) (A)
                 (A) (A) (A) (A) (A) (A) (A) (A) (A) (A) (A) (A)
                 (A) (A) (A) (A) (A) (A) (A) (A) (A) (A) (A) (A)
                 (A) (A) (A) (A) (A) (A) (A) (A) (A) (A) (A) (A)
                 (A) (A) (A) (A) (A) (A) (A) (A) (A) (A) (A) (A)
                 (A) (A) (A) (A) (A) (A) (A) (A) (A) (A) (A) (A)
                 (A) (A) (A) (A) (A) (A) (A) (A) (A) (A) (A) (A)
                 (A) (A) (A) (A) (A) (A) (A) (A) (A) (A) (A) (A)
                 (A) (A) (A) (A) (A) (A) (A) (A) (A) (A) (A) (A)
                 (A) (A) (A) (A) (A) (A) (A) (A) (A) (A) (A) (A)
                 (A) (A) (A) (A) (A) (A) (A) (A) (A) (A) (A) (A)
                 (A) (A) (A) (A) (A) (A) (A) (A) (A) (A) (A) (A)
                 (A) (A) (A) (A) (A) (A) (A) (A) (A) (A) (A) (A)
                 (A) (A) (A) (A) (A) (A) (A) (A) (A) (A) (A) (A)
                 (A) (A) (A) (A) (A) (A) (A) (A) (A) (A) (A) (A)
                 (A) (A) (A) (A) (A) (A) (A) (A) (A) (A) (A) (A)
                 (A) (A) (A) (A) (A) (A) (A) (A) (A) (A) (A) (A)
                 (A) (A) (A) (A) (A) (A) (A) (A) (A) (A) (A) (A)
                 (A) (A) (A) (A) (A) (A) (A) (A) (A) (A) (A) (A)
                 (A) (A) (A) (A) (A) (A) (A) (A) (A) (A) (A) (A)
                 (A) (A) (A) (A) (A) (A) (A) (A) (A) (A) (A) (A)
                 (A) (A) (A) (A) (A) (A) (A) (A) (A) (A) (A) (A)
                 (A) (A) (A) (A) (A) (A) (A) (A) (A) (A) (A) (A)
                 (A) (A) (A) (A) (A) (A) (A) (A) (A) (A) (A) (A)
                 (A) (A) (A) (A) (A) (A) (A) (A) (A) (A) (A) (A)
                 (A) (A) (A) (A) (A) (A) (A) (A) (A) (A) (A) (A)
                 (A) (A) (A) (A) (A) (A) (A) (A) (A) (A) (A) (A)
                 (A) (A) (A) (A) (A) (A) (A) (A) (A) (A) (A) (A)
                 (A) (A) (A) (A) (A) (A) (A) (A) (A) (A) (A) (A)
                 (A) (A) (A) (A) (A) (A) (A) (A) (A) (A) (A) (A)
                 (A) (A) (A) (A) (A) (A) (A) (A) (A) (A) (A) (A)
                 (A) (A) (A) (A) (A) (A) (A) (A) (A) (A) (A) (A)
                 (A) (A) (A) (A) (A) (A) (A) (A) (A) (A) (A) (A)
                 (A) (A) (A) (A) (A) (A) (A) (A) (A) (A) (A) (A)
                 (A) (A) (A) (A) (A) (A) (A) (A) (A) (A) (A) (A)
                 (A) (A) (A) (A) (A) (A) (A) (A) (A) (A) (A) (A)
                 (A) (A) (A) (A) (A) (A) (A) (A) (A) (A) (A) (A)
                 (A) (A) (A) (A) (A) (A) (A) (A) (A) (A) (A) (A)
                 (A) (A) (A) (A) (A) (A) (A) (A) (A) (A) (A) (A)
                 (A) (A) (A) (A) (A) (A) (A) (A) (A) (A) (A) (A)
                 (A) (A) (A) (A) (A) (A) (A) (A) (A) (A) (A) (A)
                 (A) (A) (A) (A) (A) (A) (A) (A) (A) (A) (A) (A)
                 (A) (A) (A) (A) (A) (A) (A) (A) (A) (A) (A) (A)
                 (A) (A) (A) (A) (A) (A) (A) (A) (A) (A) (A) (A)
                 (A) (A) (A) (A) (A) (A) (A) (A) (A) (A) (A) (A)
                 (A) (A) (A) (A) (A) (A) (A) (A) (A) (A) (A) (A)
                 (A) (A) (A) (A) (A) (A) (A) (A) (A) (A) (A) (A)
                 (A) (A) (A) (A) (A) (A) (A) (A) (A) (A) (A) (A)
                 (A) (A) (A) (A) (A) (A) (A) (A) (A) (A) (A) (A)
                 (A) (A) (A) (A) (A) (A) (A) (A) (A) (A) (A) (A)
                 (A) (A) (A) (A)
 The electronic state is 4-A.
 Alpha  occ. eigenvalues -- -101.08196 -19.02075 -19.01844 -19.00622 -14.19082
 Alpha  occ. eigenvalues --  -14.18837 -14.18136 -14.18095 -10.15227 -10.15117
 Alpha  occ. eigenvalues --  -10.12933 -10.12119 -10.11742 -10.11710 -10.10925
 Alpha  occ. eigenvalues --  -10.10352 -10.10074 -10.10010 -10.09694 -10.09221
 Alpha  occ. eigenvalues --  -10.08412 -10.08341 -10.07373 -10.07314 -10.07238
 Alpha  occ. eigenvalues --  -10.07139 -10.06952 -10.06805 -10.06759 -10.06507
 Alpha  occ. eigenvalues --  -10.06503 -10.06399 -10.05936 -10.05930 -10.05888
 Alpha  occ. eigenvalues --  -10.05824 -10.05814 -10.05778 -10.05759 -10.05671
 Alpha  occ. eigenvalues --  -10.05598 -10.05508 -10.05460 -10.04666 -10.04625
 Alpha  occ. eigenvalues --  -10.04123 -10.04025 -10.03977 -10.03779  -9.31155
 Alpha  occ. eigenvalues --   -7.01561  -7.01335  -7.01243  -4.04673  -4.00542
 Alpha  occ. eigenvalues --   -2.63847  -2.62920  -2.62481  -2.60715  -2.60111
 Alpha  occ. eigenvalues --   -2.56237  -1.07161  -1.06978  -1.04231  -0.94697
 Alpha  occ. eigenvalues --   -0.90110  -0.88190  -0.87164  -0.82656  -0.81555
 Alpha  occ. eigenvalues --   -0.79919  -0.79385  -0.79076  -0.78515  -0.75686
 Alpha  occ. eigenvalues --   -0.74733  -0.74601  -0.72811  -0.72551  -0.71372
 Alpha  occ. eigenvalues --   -0.70740  -0.70238  -0.69658  -0.68809  -0.66554
 Alpha  occ. eigenvalues --   -0.65460  -0.65142  -0.64876  -0.64685  -0.64606
 Alpha  occ. eigenvalues --   -0.64278  -0.62822  -0.61652  -0.60875  -0.60745
 Alpha  occ. eigenvalues --   -0.58405  -0.57882  -0.56910  -0.56310  -0.55962
 Alpha  occ. eigenvalues --   -0.55331  -0.55006  -0.52110  -0.51316  -0.51067
 Alpha  occ. eigenvalues --   -0.49921  -0.49789  -0.49346  -0.49091  -0.48309
 Alpha  occ. eigenvalues --   -0.47289  -0.46690  -0.46409  -0.45930  -0.45585
 Alpha  occ. eigenvalues --   -0.45489  -0.44785  -0.43738  -0.43077  -0.42840
 Alpha  occ. eigenvalues --   -0.42716  -0.42363  -0.41708  -0.41541  -0.41153
 Alpha  occ. eigenvalues --   -0.40876  -0.40755  -0.40669  -0.40540  -0.40489
 Alpha  occ. eigenvalues --   -0.40129  -0.39875  -0.39548  -0.39312  -0.39093
 Alpha  occ. eigenvalues --   -0.38536  -0.38192  -0.38139  -0.37711  -0.37487
 Alpha  occ. eigenvalues --   -0.37014  -0.36823  -0.36346  -0.35948  -0.35730
 Alpha  occ. eigenvalues --   -0.35505  -0.35314  -0.35114  -0.34939  -0.34665
 Alpha  occ. eigenvalues --   -0.34522  -0.33983  -0.33875  -0.33740  -0.33400
 Alpha  occ. eigenvalues --   -0.33182  -0.33140  -0.33090  -0.32882  -0.32675
 Alpha  occ. eigenvalues --   -0.32513  -0.31917  -0.31671  -0.31357  -0.31190
 Alpha  occ. eigenvalues --   -0.31045  -0.30743  -0.30604  -0.30446  -0.30184
 Alpha  occ. eigenvalues --   -0.29940  -0.29615  -0.29418  -0.29327  -0.29209
 Alpha  occ. eigenvalues --   -0.28888  -0.28442  -0.26382  -0.26148  -0.25751
 Alpha  occ. eigenvalues --   -0.25579  -0.24587  -0.24177  -0.23814  -0.23589
 Alpha  occ. eigenvalues --   -0.23552  -0.23382  -0.23063  -0.22498  -0.22166
 Alpha  occ. eigenvalues --   -0.21653  -0.21195  -0.20927  -0.20299  -0.19893
 Alpha  occ. eigenvalues --   -0.19535  -0.17587  -0.17125  -0.14226  -0.13225
 Alpha virt. eigenvalues --   -0.10971  -0.08948  -0.05488  -0.04246  -0.03989
 Alpha virt. eigenvalues --   -0.03698  -0.03577  -0.03332  -0.01253   0.00674
 Alpha virt. eigenvalues --    0.00972   0.01654   0.01916   0.02235   0.02680
 Alpha virt. eigenvalues --    0.03114   0.03786   0.04088   0.05084   0.05280
 Alpha virt. eigenvalues --    0.05470   0.05856   0.06055   0.06153   0.06352
 Alpha virt. eigenvalues --    0.06600   0.07073   0.07316   0.07408   0.07728
 Alpha virt. eigenvalues --    0.07808   0.08049   0.08354   0.08887   0.08995
 Alpha virt. eigenvalues --    0.09133   0.09501   0.09647   0.09771   0.09867
 Alpha virt. eigenvalues --    0.10101   0.10277   0.10285   0.10603   0.10807
 Alpha virt. eigenvalues --    0.11045   0.11124   0.11310   0.11368   0.11627
 Alpha virt. eigenvalues --    0.11814   0.12091   0.12382   0.12478   0.12686
 Alpha virt. eigenvalues --    0.12787   0.13054   0.13089   0.13541   0.13699
 Alpha virt. eigenvalues --    0.13788   0.14060   0.14270   0.14412   0.14671
 Alpha virt. eigenvalues --    0.14834   0.14957   0.15237   0.15404   0.15560
 Alpha virt. eigenvalues --    0.15746   0.15854   0.16059   0.16278   0.16389
 Alpha virt. eigenvalues --    0.16767   0.16969   0.17189   0.17385   0.17566
 Alpha virt. eigenvalues --    0.17811   0.18177   0.18399   0.18527   0.18932
 Alpha virt. eigenvalues --    0.18990   0.19363   0.19524   0.19762   0.20248
 Alpha virt. eigenvalues --    0.20366   0.20510   0.20639   0.21032   0.21163
 Alpha virt. eigenvalues --    0.21355   0.21415   0.21731   0.21841   0.22451
 Alpha virt. eigenvalues --    0.22470   0.22700   0.22896   0.23050   0.23152
 Alpha virt. eigenvalues --    0.23320   0.23563   0.23669   0.23885   0.23991
 Alpha virt. eigenvalues --    0.24096   0.24273   0.24698   0.24880   0.25176
 Alpha virt. eigenvalues --    0.25279   0.25593   0.25676   0.25839   0.26197
 Alpha virt. eigenvalues --    0.26210   0.26399   0.26485   0.26846   0.26974
 Alpha virt. eigenvalues --    0.27213   0.27437   0.27890   0.27962   0.28075
 Alpha virt. eigenvalues --    0.28315   0.28347   0.28745   0.28828   0.28952
 Alpha virt. eigenvalues --    0.29118   0.29355   0.29463   0.29822   0.30142
 Alpha virt. eigenvalues --    0.30160   0.30306   0.30524   0.30698   0.30788
 Alpha virt. eigenvalues --    0.30880   0.31311   0.31347   0.31609   0.32032
 Alpha virt. eigenvalues --    0.32162   0.32431   0.32594   0.32743   0.33117
 Alpha virt. eigenvalues --    0.33398   0.33676   0.33741   0.33863   0.33983
 Alpha virt. eigenvalues --    0.34087   0.34342   0.34538   0.34752   0.34966
 Alpha virt. eigenvalues --    0.35070   0.35295   0.35482   0.35618   0.35754
 Alpha virt. eigenvalues --    0.35888   0.36086   0.36314   0.36534   0.36560
 Alpha virt. eigenvalues --    0.36791   0.36902   0.36948   0.37164   0.37289
 Alpha virt. eigenvalues --    0.37341   0.37520   0.37866   0.37956   0.38187
 Alpha virt. eigenvalues --    0.38468   0.38647   0.38839   0.38929   0.39234
 Alpha virt. eigenvalues --    0.39377   0.39524   0.39578   0.39731   0.39778
 Alpha virt. eigenvalues --    0.40114   0.40351   0.40564   0.40890   0.41121
 Alpha virt. eigenvalues --    0.41153   0.41408   0.41463   0.41593   0.41796
 Alpha virt. eigenvalues --    0.41946   0.42287   0.42359   0.42633   0.42843
 Alpha virt. eigenvalues --    0.42947   0.43167   0.43471   0.43522   0.43824
 Alpha virt. eigenvalues --    0.43849   0.43937   0.44015   0.44064   0.44270
 Alpha virt. eigenvalues --    0.44371   0.44593   0.44815   0.44880   0.45123
 Alpha virt. eigenvalues --    0.45208   0.45379   0.45524   0.45671   0.45874
 Alpha virt. eigenvalues --    0.45997   0.46135   0.46288   0.46496   0.46615
 Alpha virt. eigenvalues --    0.46837   0.47100   0.47338   0.47481   0.47646
 Alpha virt. eigenvalues --    0.47971   0.48200   0.48463   0.48543   0.48664
 Alpha virt. eigenvalues --    0.48989   0.49309   0.49423   0.49468   0.49659
 Alpha virt. eigenvalues --    0.49957   0.50253   0.50477   0.50567   0.50719
 Alpha virt. eigenvalues --    0.50996   0.51156   0.51424   0.51657   0.51770
 Alpha virt. eigenvalues --    0.51777   0.52300   0.52445   0.52681   0.52918
 Alpha virt. eigenvalues --    0.53260   0.53702   0.53967   0.53996   0.54491
 Alpha virt. eigenvalues --    0.54539   0.54848   0.55154   0.55425   0.56014
 Alpha virt. eigenvalues --    0.56056   0.56607   0.56980   0.57072   0.57415
 Alpha virt. eigenvalues --    0.58002   0.58302   0.58314   0.58545   0.58771
 Alpha virt. eigenvalues --    0.59025   0.59116   0.59313   0.59721   0.59984
 Alpha virt. eigenvalues --    0.60340   0.60499   0.61000   0.61334   0.61531
 Alpha virt. eigenvalues --    0.61795   0.61983   0.62349   0.62472   0.62718
 Alpha virt. eigenvalues --    0.63069   0.63457   0.63618   0.64025   0.64296
 Alpha virt. eigenvalues --    0.64672   0.64793   0.65090   0.65645   0.65784
 Alpha virt. eigenvalues --    0.65892   0.66156   0.66558   0.66749   0.67018
 Alpha virt. eigenvalues --    0.67287   0.67465   0.67678   0.68130   0.68222
 Alpha virt. eigenvalues --    0.68454   0.68595   0.68830   0.69197   0.69362
 Alpha virt. eigenvalues --    0.69608   0.69864   0.70066   0.70263   0.70544
 Alpha virt. eigenvalues --    0.71001   0.71316   0.71392   0.71517   0.71804
 Alpha virt. eigenvalues --    0.72076   0.72331   0.72766   0.72923   0.73305
 Alpha virt. eigenvalues --    0.73367   0.73604   0.73781   0.73909   0.74224
 Alpha virt. eigenvalues --    0.74565   0.74935   0.75380   0.75594   0.75707
 Alpha virt. eigenvalues --    0.76149   0.76305   0.76366   0.76389   0.76910
 Alpha virt. eigenvalues --    0.77238   0.77540   0.78037   0.78276   0.78474
 Alpha virt. eigenvalues --    0.78743   0.79386   0.79710   0.79949   0.80246
 Alpha virt. eigenvalues --    0.80482   0.80686   0.81068   0.81591   0.81791
 Alpha virt. eigenvalues --    0.81838   0.82250   0.82451   0.82636   0.82826
 Alpha virt. eigenvalues --    0.83050   0.83505   0.83894   0.84222   0.84529
 Alpha virt. eigenvalues --    0.84841   0.85231   0.85384   0.85387   0.85934
 Alpha virt. eigenvalues --    0.86197   0.86303   0.86668   0.87017   0.87126
 Alpha virt. eigenvalues --    0.87310   0.87505   0.87854   0.88203   0.88713
 Alpha virt. eigenvalues --    0.88971   0.89174   0.89542   0.89738   0.89871
 Alpha virt. eigenvalues --    0.89997   0.90750   0.90866   0.90982   0.91328
 Alpha virt. eigenvalues --    0.91794   0.92002   0.92420   0.92739   0.92990
 Alpha virt. eigenvalues --    0.93305   0.93593   0.93857   0.94330   0.94796
 Alpha virt. eigenvalues --    0.95052   0.95537   0.95962   0.96152   0.96809
 Alpha virt. eigenvalues --    0.96969   0.97418   0.97704   0.98086   0.98476
 Alpha virt. eigenvalues --    0.98817   0.98947   0.99619   0.99791   1.00061
 Alpha virt. eigenvalues --    1.00972   1.01460   1.01673   1.02144   1.02467
 Alpha virt. eigenvalues --    1.02776   1.02871   1.03157   1.03839   1.04159
 Alpha virt. eigenvalues --    1.04418   1.04524   1.04690   1.04906   1.05278
 Alpha virt. eigenvalues --    1.05341   1.06270   1.06325   1.07348   1.07382
 Alpha virt. eigenvalues --    1.07477   1.07592   1.08142   1.08242   1.08716
 Alpha virt. eigenvalues --    1.08883   1.09238   1.09536   1.10372   1.10465
 Alpha virt. eigenvalues --    1.10667   1.11073   1.11385   1.11714   1.11883
 Alpha virt. eigenvalues --    1.12176   1.12644   1.13130   1.13336   1.13435
 Alpha virt. eigenvalues --    1.13815   1.14000   1.14419   1.14707   1.14818
 Alpha virt. eigenvalues --    1.15436   1.15931   1.16065   1.16566   1.16765
 Alpha virt. eigenvalues --    1.17220   1.17566   1.17765   1.17881   1.18087
 Alpha virt. eigenvalues --    1.18714   1.19107   1.19387   1.19635   1.19831
 Alpha virt. eigenvalues --    1.20182   1.20407   1.20965   1.21290   1.21665
 Alpha virt. eigenvalues --    1.21987   1.22183   1.22839   1.23085   1.23450
 Alpha virt. eigenvalues --    1.23681   1.23937   1.24244   1.24570   1.24839
 Alpha virt. eigenvalues --    1.25027   1.25622   1.25802   1.26380   1.26446
 Alpha virt. eigenvalues --    1.26820   1.27201   1.27445   1.27834   1.28174
 Alpha virt. eigenvalues --    1.28609   1.29049   1.29414   1.29633   1.29893
 Alpha virt. eigenvalues --    1.30024   1.30357   1.30956   1.31219   1.31521
 Alpha virt. eigenvalues --    1.31929   1.31969   1.32036   1.32486   1.32593
 Alpha virt. eigenvalues --    1.33558   1.33664   1.33979   1.34677   1.34973
 Alpha virt. eigenvalues --    1.35638   1.36045   1.36347   1.36499   1.36992
 Alpha virt. eigenvalues --    1.37426   1.37698   1.38161   1.38678   1.38885
 Alpha virt. eigenvalues --    1.39217   1.39502   1.39887   1.40403   1.40695
 Alpha virt. eigenvalues --    1.41129   1.41832   1.42574   1.42867   1.43349
 Alpha virt. eigenvalues --    1.43628   1.44128   1.44331   1.44497   1.45110
 Alpha virt. eigenvalues --    1.45486   1.45692   1.45818   1.46724   1.46812
 Alpha virt. eigenvalues --    1.47135   1.47418   1.48079   1.48349   1.48531
 Alpha virt. eigenvalues --    1.48560   1.48905   1.49570   1.49711   1.50089
 Alpha virt. eigenvalues --    1.50190   1.50610   1.51040   1.51230   1.51881
 Alpha virt. eigenvalues --    1.51938   1.52590   1.52820   1.53095   1.53246
 Alpha virt. eigenvalues --    1.53567   1.54180   1.54305   1.54394   1.54952
 Alpha virt. eigenvalues --    1.55108   1.55377   1.55600   1.55777   1.56225
 Alpha virt. eigenvalues --    1.56508   1.56740   1.57278   1.57347   1.57933
 Alpha virt. eigenvalues --    1.57978   1.58217   1.58489   1.58596   1.58942
 Alpha virt. eigenvalues --    1.59070   1.59446   1.59496   1.59819   1.60070
 Alpha virt. eigenvalues --    1.60501   1.60517   1.60667   1.61291   1.61642
 Alpha virt. eigenvalues --    1.61813   1.62021   1.62219   1.62362   1.62669
 Alpha virt. eigenvalues --    1.62854   1.63498   1.63524   1.63751   1.64089
 Alpha virt. eigenvalues --    1.64363   1.64652   1.65020   1.65241   1.65570
 Alpha virt. eigenvalues --    1.65842   1.66389   1.66591   1.67135   1.67376
 Alpha virt. eigenvalues --    1.67779   1.68098   1.68509   1.68648   1.68878
 Alpha virt. eigenvalues --    1.69303   1.69524   1.69788   1.70297   1.70387
 Alpha virt. eigenvalues --    1.70662   1.71265   1.71367   1.71750   1.72248
 Alpha virt. eigenvalues --    1.72327   1.72606   1.73123   1.73288   1.73938
 Alpha virt. eigenvalues --    1.74281   1.74336   1.75002   1.75381   1.75567
 Alpha virt. eigenvalues --    1.76110   1.76449   1.76767   1.77106   1.77667
 Alpha virt. eigenvalues --    1.78123   1.78436   1.78800   1.78840   1.79346
 Alpha virt. eigenvalues --    1.80434   1.80589   1.81480   1.81762   1.82290
 Alpha virt. eigenvalues --    1.82478   1.82681   1.82898   1.83288   1.83496
 Alpha virt. eigenvalues --    1.83884   1.84700   1.85309   1.85486   1.85817
 Alpha virt. eigenvalues --    1.86317   1.86775   1.86991   1.87282   1.87706
 Alpha virt. eigenvalues --    1.88200   1.88378   1.88985   1.89125   1.89324
 Alpha virt. eigenvalues --    1.89941   1.89950   1.90626   1.90912   1.91443
 Alpha virt. eigenvalues --    1.91583   1.91855   1.92003   1.92153   1.92472
 Alpha virt. eigenvalues --    1.93086   1.93356   1.93743   1.94028   1.94311
 Alpha virt. eigenvalues --    1.94661   1.95127   1.95847   1.96198   1.96372
 Alpha virt. eigenvalues --    1.96600   1.96742   1.97012   1.97494   1.97714
 Alpha virt. eigenvalues --    1.97909   1.98555   1.98844   1.99591   1.99746
 Alpha virt. eigenvalues --    1.99993   2.00146   2.00898   2.01523   2.01638
 Alpha virt. eigenvalues --    2.02174   2.02737   2.03219   2.03798   2.04039
 Alpha virt. eigenvalues --    2.04174   2.04498   2.04672   2.04980   2.05880
 Alpha virt. eigenvalues --    2.06189   2.06472   2.06645   2.07215   2.07785
 Alpha virt. eigenvalues --    2.08120   2.08394   2.08613   2.09043   2.09155
 Alpha virt. eigenvalues --    2.09448   2.10209   2.10562   2.10686   2.11260
 Alpha virt. eigenvalues --    2.11444   2.11890   2.12157   2.12298   2.12499
 Alpha virt. eigenvalues --    2.13045   2.13316   2.13615   2.13910   2.14369
 Alpha virt. eigenvalues --    2.14633   2.14936   2.15125   2.15617   2.16150
 Alpha virt. eigenvalues --    2.16354   2.16810   2.17332   2.17684   2.17826
 Alpha virt. eigenvalues --    2.18177   2.18567   2.18699   2.19621   2.20315
 Alpha virt. eigenvalues --    2.20534   2.20933   2.21139   2.21526   2.21740
 Alpha virt. eigenvalues --    2.22381   2.22486   2.22804   2.23354   2.23623
 Alpha virt. eigenvalues --    2.23777   2.23825   2.24110   2.24393   2.24988
 Alpha virt. eigenvalues --    2.25268   2.25628   2.25951   2.26364   2.27128
 Alpha virt. eigenvalues --    2.27381   2.27715   2.27803   2.28212   2.28685
 Alpha virt. eigenvalues --    2.28930   2.29051   2.29776   2.29945   2.30351
 Alpha virt. eigenvalues --    2.30835   2.31057   2.31795   2.31846   2.31970
 Alpha virt. eigenvalues --    2.32409   2.32669   2.33055   2.33715   2.33994
 Alpha virt. eigenvalues --    2.34375   2.34661   2.35210   2.35426   2.35809
 Alpha virt. eigenvalues --    2.35962   2.36349   2.36727   2.37023   2.37443
 Alpha virt. eigenvalues --    2.37970   2.38589   2.38890   2.39490   2.39765
 Alpha virt. eigenvalues --    2.40091   2.40411   2.40556   2.40690   2.41031
 Alpha virt. eigenvalues --    2.41279   2.41744   2.42217   2.42540   2.43188
 Alpha virt. eigenvalues --    2.43394   2.43689   2.43767   2.44614   2.44951
 Alpha virt. eigenvalues --    2.45295   2.45485   2.46250   2.46431   2.46821
 Alpha virt. eigenvalues --    2.47172   2.47671   2.47811   2.48261   2.48639
 Alpha virt. eigenvalues --    2.49009   2.49400   2.49958   2.50464   2.51109
 Alpha virt. eigenvalues --    2.51424   2.51763   2.52315   2.52339   2.52593
 Alpha virt. eigenvalues --    2.53291   2.54043   2.54303   2.54372   2.54699
 Alpha virt. eigenvalues --    2.54905   2.55431   2.55876   2.56087   2.56524
 Alpha virt. eigenvalues --    2.56736   2.57161   2.57306   2.57439   2.57993
 Alpha virt. eigenvalues --    2.58428   2.58610   2.58889   2.59527   2.59621
 Alpha virt. eigenvalues --    2.59673   2.60134   2.60378   2.60691   2.61325
 Alpha virt. eigenvalues --    2.61553   2.61706   2.61792   2.62221   2.62424
 Alpha virt. eigenvalues --    2.62532   2.62879   2.63014   2.63314   2.63542
 Alpha virt. eigenvalues --    2.64094   2.64293   2.64502   2.64722   2.64830
 Alpha virt. eigenvalues --    2.65362   2.65556   2.65915   2.66355   2.66665
 Alpha virt. eigenvalues --    2.66911   2.67273   2.67743   2.67932   2.68266
 Alpha virt. eigenvalues --    2.68383   2.68701   2.68781   2.69031   2.69462
 Alpha virt. eigenvalues --    2.69666   2.70304   2.70652   2.70702   2.70998
 Alpha virt. eigenvalues --    2.71252   2.71432   2.71557   2.71794   2.72329
 Alpha virt. eigenvalues --    2.72703   2.73231   2.73351   2.73410   2.73657
 Alpha virt. eigenvalues --    2.73974   2.74401   2.74805   2.75292   2.75561
 Alpha virt. eigenvalues --    2.75738   2.75950   2.76595   2.76804   2.77175
 Alpha virt. eigenvalues --    2.77491   2.77736   2.78274   2.78508   2.78773
 Alpha virt. eigenvalues --    2.79267   2.79577   2.80134   2.80370   2.80520
 Alpha virt. eigenvalues --    2.80652   2.81022   2.81586   2.81854   2.82094
 Alpha virt. eigenvalues --    2.82323   2.82659   2.82925   2.83464   2.83643
 Alpha virt. eigenvalues --    2.84355   2.84381   2.84729   2.84802   2.85146
 Alpha virt. eigenvalues --    2.85556   2.85785   2.86326   2.86514   2.86626
 Alpha virt. eigenvalues --    2.87120   2.87249   2.87564   2.87601   2.88410
 Alpha virt. eigenvalues --    2.88611   2.88821   2.88889   2.88988   2.89447
 Alpha virt. eigenvalues --    2.89729   2.89981   2.90324   2.90616   2.90761
 Alpha virt. eigenvalues --    2.91309   2.91816   2.92052   2.92212   2.92707
 Alpha virt. eigenvalues --    2.93008   2.93255   2.93406   2.93887   2.94227
 Alpha virt. eigenvalues --    2.94430   2.94654   2.94844   2.95405   2.95750
 Alpha virt. eigenvalues --    2.96191   2.97051   2.97258   2.97434   2.97694
 Alpha virt. eigenvalues --    2.98066   2.98951   2.99197   2.99337   2.99695
 Alpha virt. eigenvalues --    3.00200   3.00611   3.00633   3.01078   3.01289
 Alpha virt. eigenvalues --    3.01650   3.02137   3.02570   3.03316   3.03624
 Alpha virt. eigenvalues --    3.03844   3.04460   3.04607   3.04932   3.05031
 Alpha virt. eigenvalues --    3.05712   3.05858   3.05953   3.06372   3.06862
 Alpha virt. eigenvalues --    3.07574   3.07797   3.08120   3.08361   3.08817
 Alpha virt. eigenvalues --    3.08973   3.09121   3.09786   3.10359   3.10915
 Alpha virt. eigenvalues --    3.11114   3.11267   3.11571   3.11863   3.12651
 Alpha virt. eigenvalues --    3.12936   3.13022   3.13529   3.13656   3.13909
 Alpha virt. eigenvalues --    3.14317   3.14483   3.15348   3.15631   3.15705
 Alpha virt. eigenvalues --    3.15991   3.16444   3.16462   3.16816   3.16919
 Alpha virt. eigenvalues --    3.17204   3.17664   3.17726   3.18015   3.18836
 Alpha virt. eigenvalues --    3.19017   3.19277   3.19460   3.19719   3.19855
 Alpha virt. eigenvalues --    3.20151   3.20891   3.21209   3.21226   3.21503
 Alpha virt. eigenvalues --    3.22062   3.22247   3.22571   3.22825   3.23045
 Alpha virt. eigenvalues --    3.23715   3.23839   3.24015   3.24484   3.24644
 Alpha virt. eigenvalues --    3.25008   3.25079   3.25320   3.25521   3.25969
 Alpha virt. eigenvalues --    3.26298   3.26476   3.27007   3.27211   3.27314
 Alpha virt. eigenvalues --    3.27652   3.28261   3.28676   3.28868   3.29042
 Alpha virt. eigenvalues --    3.29365   3.29393   3.30169   3.30463   3.30692
 Alpha virt. eigenvalues --    3.31257   3.31435   3.31653   3.31896   3.32203
 Alpha virt. eigenvalues --    3.32400   3.32844   3.33080   3.33127   3.33362
 Alpha virt. eigenvalues --    3.33636   3.33964   3.34042   3.34466   3.34797
 Alpha virt. eigenvalues --    3.34844   3.35283   3.35384   3.35874   3.35983
 Alpha virt. eigenvalues --    3.36346   3.36438   3.36950   3.37083   3.37439
 Alpha virt. eigenvalues --    3.37618   3.37909   3.38165   3.38859   3.38869
 Alpha virt. eigenvalues --    3.39085   3.39511   3.39643   3.39816   3.40174
 Alpha virt. eigenvalues --    3.40374   3.40611   3.41101   3.41191   3.41247
 Alpha virt. eigenvalues --    3.41582   3.41856   3.42139   3.42324   3.42424
 Alpha virt. eigenvalues --    3.42628   3.42980   3.43137   3.43317   3.43500
 Alpha virt. eigenvalues --    3.43733   3.43946   3.44527   3.44796   3.44869
 Alpha virt. eigenvalues --    3.45219   3.45453   3.45695   3.46388   3.46653
 Alpha virt. eigenvalues --    3.46680   3.46919   3.47180   3.47453   3.47794
 Alpha virt. eigenvalues --    3.47886   3.48098   3.48550   3.48886   3.49260
 Alpha virt. eigenvalues --    3.49451   3.49492   3.50281   3.50534   3.50750
 Alpha virt. eigenvalues --    3.51126   3.51297   3.51701   3.51843   3.52210
 Alpha virt. eigenvalues --    3.52613   3.52996   3.53147   3.53674   3.53891
 Alpha virt. eigenvalues --    3.54113   3.54336   3.54696   3.54995   3.55279
 Alpha virt. eigenvalues --    3.55528   3.55797   3.55847   3.56378   3.56440
 Alpha virt. eigenvalues --    3.56970   3.57356   3.57459   3.57861   3.58113
 Alpha virt. eigenvalues --    3.58266   3.58521   3.58951   3.59161   3.59587
 Alpha virt. eigenvalues --    3.60000   3.60446   3.60684   3.61058   3.61720
 Alpha virt. eigenvalues --    3.62398   3.62749   3.63274   3.63466   3.63959
 Alpha virt. eigenvalues --    3.64468   3.65114   3.65260   3.65649   3.66445
 Alpha virt. eigenvalues --    3.66614   3.66774   3.67305   3.67561   3.68632
 Alpha virt. eigenvalues --    3.68915   3.69130   3.69385   3.69760   3.69989
 Alpha virt. eigenvalues --    3.70766   3.70990   3.71214   3.71386   3.71906
 Alpha virt. eigenvalues --    3.72129   3.72217   3.73193   3.73984   3.74412
 Alpha virt. eigenvalues --    3.74605   3.75022   3.75514   3.75830   3.76242
 Alpha virt. eigenvalues --    3.76628   3.77500   3.78042   3.78312   3.78860
 Alpha virt. eigenvalues --    3.79499   3.79718   3.80489   3.80916   3.81372
 Alpha virt. eigenvalues --    3.81534   3.82016   3.82400   3.82538   3.82954
 Alpha virt. eigenvalues --    3.83548   3.84222   3.84519   3.84680   3.85193
 Alpha virt. eigenvalues --    3.85714   3.86024   3.86984   3.87615   3.87752
 Alpha virt. eigenvalues --    3.88538   3.88641   3.89151   3.89273   3.90079
 Alpha virt. eigenvalues --    3.90758   3.91025   3.92359   3.92813   3.93197
 Alpha virt. eigenvalues --    3.93484   3.93857   3.94497   3.95194   3.95537
 Alpha virt. eigenvalues --    3.95892   3.96705   3.97425   3.98470   3.98993
 Alpha virt. eigenvalues --    3.99343   3.99955   4.00092   4.00331   4.00848
 Alpha virt. eigenvalues --    4.02035   4.02570   4.02626   4.03539   4.03919
 Alpha virt. eigenvalues --    4.04295   4.04645   4.05538   4.05605   4.06195
 Alpha virt. eigenvalues --    4.06759   4.07306   4.07387   4.08035   4.08509
 Alpha virt. eigenvalues --    4.08908   4.09516   4.10243   4.11786   4.12182
 Alpha virt. eigenvalues --    4.12868   4.13098   4.13509   4.13687   4.13952
 Alpha virt. eigenvalues --    4.14656   4.14789   4.15040   4.15194   4.15558
 Alpha virt. eigenvalues --    4.15867   4.16350   4.16698   4.17024   4.17738
 Alpha virt. eigenvalues --    4.18314   4.18441   4.19082   4.19286   4.19503
 Alpha virt. eigenvalues --    4.19842   4.20065   4.20455   4.21186   4.21807
 Alpha virt. eigenvalues --    4.22232   4.22382   4.23303   4.23770   4.24026
 Alpha virt. eigenvalues --    4.24357   4.25022   4.25146   4.25549   4.25705
 Alpha virt. eigenvalues --    4.25986   4.26351   4.26716   4.27198   4.27687
 Alpha virt. eigenvalues --    4.28099   4.28646   4.28765   4.29114   4.29426
 Alpha virt. eigenvalues --    4.29882   4.30311   4.31491   4.31924   4.32349
 Alpha virt. eigenvalues --    4.32811   4.33172   4.33513   4.33579   4.34458
 Alpha virt. eigenvalues --    4.34630   4.35116   4.35308   4.36151   4.36743
 Alpha virt. eigenvalues --    4.36980   4.37295   4.37694   4.38244   4.38511
 Alpha virt. eigenvalues --    4.39630   4.39650   4.40443   4.41275   4.41549
 Alpha virt. eigenvalues --    4.42790   4.43165   4.43545   4.44205   4.44601
 Alpha virt. eigenvalues --    4.44675   4.45225   4.45359   4.45856   4.46373
 Alpha virt. eigenvalues --    4.46849   4.47411   4.48170   4.48846   4.49239
 Alpha virt. eigenvalues --    4.50253   4.50962   4.51200   4.52209   4.52665
 Alpha virt. eigenvalues --    4.53220   4.53567   4.53995   4.56403   4.56744
 Alpha virt. eigenvalues --    4.57127   4.57417   4.57914   4.59401   4.59654
 Alpha virt. eigenvalues --    4.60471   4.60732   4.62211   4.63178   4.63981
 Alpha virt. eigenvalues --    4.65165   4.65357   4.66191   4.67160   4.68506
 Alpha virt. eigenvalues --    4.69050   4.70308   4.73632   4.74508   4.75001
 Alpha virt. eigenvalues --    4.75515   4.75973   4.76288   4.77050   4.77666
 Alpha virt. eigenvalues --    4.77999   4.78386   4.79128   4.79415   4.80925
 Alpha virt. eigenvalues --    4.81701   4.82171   4.84739   4.85226   4.86015
 Alpha virt. eigenvalues --    4.86685   4.87622   4.88771   4.89252   4.90366
 Alpha virt. eigenvalues --    4.90512   4.92318   4.93722   4.94071   4.94664
 Alpha virt. eigenvalues --    4.96499   4.97836   4.98995   5.00082   5.01142
 Alpha virt. eigenvalues --    5.02267   5.03580   5.04166   5.04367   5.05740
 Alpha virt. eigenvalues --    5.07331   5.07761   5.08243   5.09227   5.10137
 Alpha virt. eigenvalues --    5.10688   5.12081   5.12575   5.12846   5.13495
 Alpha virt. eigenvalues --    5.14082   5.15409   5.15634   5.16666   5.17038
[...]
    35 H(1)   Bbb    -0.0020    -1.082    -0.386    -0.361  0.0131 -0.1151  0.9933
              Bcc     0.0046     2.435     0.869     0.812 -0.6365  0.7652  0.0970
 
              Baa    -0.0025    -1.327    -0.474    -0.443  0.3895  0.8092  0.4399
    36 H(1)   Bbb    -0.0019    -1.014    -0.362    -0.338 -0.2392 -0.3723  0.8968
              Bcc     0.0044     2.341     0.835     0.781  0.8894 -0.4546  0.0486
 
              Baa    -0.0074    -0.992    -0.354    -0.331  0.5119  0.8580 -0.0419
    37 C(13)  Bbb    -0.0066    -0.892    -0.318    -0.297  0.2985 -0.1319  0.9452
              Bcc     0.0140     1.884     0.672     0.628  0.8055 -0.4964 -0.3237
 
              Baa    -0.0059    -3.169    -1.131    -1.057  0.6446  0.7508 -0.1441
    38 H(1)   Bbb    -0.0046    -2.436    -0.869    -0.812  0.4541 -0.2244  0.8622
              Bcc     0.0105     5.605     2.000     1.869 -0.6150  0.6213  0.4856
 
              Baa    -0.0079    -1.061    -0.379    -0.354 -0.0238  0.8766  0.4807
    39 C(13)  Bbb    -0.0065    -0.868    -0.310    -0.290 -0.4027 -0.4485  0.7979
              Bcc     0.0144     1.929     0.688     0.644  0.9150 -0.1746  0.3636
 
              Baa    -0.0056    -2.964    -1.058    -0.989  0.3154  0.8675  0.3846
    40 H(1)   Bbb    -0.0040    -2.146    -0.766    -0.716 -0.5374 -0.1708  0.8258
              Bcc     0.0096     5.109     1.823     1.704  0.7821 -0.4672  0.4124
 
              Baa    -0.0209     1.513     0.540     0.505 -0.4301  0.3989  0.8098
    41 O(17)  Bbb    -0.0033     0.237     0.084     0.079 -0.2317  0.8182 -0.5261
              Bcc     0.0242    -1.749    -0.624    -0.583  0.8725  0.4140  0.2595
 
              Baa    -0.0328     2.375     0.847     0.792  0.6042 -0.4026  0.6876
    42 O(17)  Bbb    -0.0210     1.517     0.541     0.506  0.7735  0.0894 -0.6274
              Bcc     0.0538    -3.892    -1.389    -1.298  0.1912  0.9110  0.3655
 
              Baa    -0.8505    40.622    14.495    13.550  0.6461  0.5948  0.4783
    43 Ni(61) Bbb     0.0059    -0.283    -0.101    -0.094  0.7602 -0.5577 -0.3334
              Bcc     0.8446   -40.339   -14.394   -13.456 -0.0685 -0.5790  0.8124
 
              Baa    -0.1881    -9.842    -3.512    -3.283 -0.1862 -0.4610  0.8677
    44 Cl(35) Bbb    -0.1034    -5.412    -1.931    -1.805 -0.6745  0.7021  0.2283
              Bcc     0.2915    15.255     5.443     5.088  0.7144  0.5427  0.4416
 
              Baa    -0.0051    -0.682    -0.243    -0.227  0.3529  0.4851  0.8001
    45 C(13)  Bbb    -0.0031    -0.415    -0.148    -0.138 -0.2138  0.8743 -0.4358
              Bcc     0.0082     1.097     0.391     0.366  0.9109  0.0173 -0.4123
 
              Baa    -0.0028    -0.375    -0.134    -0.125  0.0338  0.5988  0.8002
    46 C(13)  Bbb    -0.0024    -0.323    -0.115    -0.108 -0.0780  0.7998 -0.5952
              Bcc     0.0052     0.698     0.249     0.233  0.9964  0.0423 -0.0738
 
              Baa    -0.0042    -2.219    -0.792    -0.740 -0.2092  0.8055  0.5544
    47 H(1)   Bbb    -0.0035    -1.864    -0.665    -0.622  0.0627 -0.5547  0.8297
              Bcc     0.0077     4.083     1.457     1.362  0.9759  0.2083  0.0656
 
              Baa    -0.0021    -1.124    -0.401    -0.375  0.0508  0.9315  0.3602
    48 H(1)   Bbb    -0.0018    -0.969    -0.346    -0.323 -0.0686 -0.3565  0.9318
              Bcc     0.0039     2.094     0.747     0.698  0.9963 -0.0721  0.0458
 
              Baa    -0.0018    -0.967    -0.345    -0.323 -0.0423  0.8516  0.5224
    49 H(1)   Bbb    -0.0015    -0.809    -0.289    -0.270  0.1908 -0.5064  0.8410
              Bcc     0.0033     1.776     0.634     0.592  0.9807  0.1352 -0.1410
 
              Baa    -0.0018    -0.236    -0.084    -0.079  0.2777  0.9569 -0.0853
    50 C(13)  Bbb    -0.0015    -0.196    -0.070    -0.065  0.4514 -0.0516  0.8908
              Bcc     0.0032     0.432     0.154     0.144  0.8480 -0.2859 -0.4463
 
              Baa    -0.0016    -0.849    -0.303    -0.283  0.5135  0.8425  0.1630
    51 H(1)   Bbb    -0.0014    -0.774    -0.276    -0.258  0.3709 -0.3892  0.8432
              Bcc     0.0030     1.623     0.579     0.541  0.7738 -0.3725 -0.5123
 
              Baa    -0.0012    -0.642    -0.229    -0.214  0.3608  0.7985  0.4820
    52 H(1)   Bbb    -0.0011    -0.587    -0.209    -0.196  0.2621 -0.5828  0.7692
              Bcc     0.0023     1.228     0.438     0.410  0.8951 -0.1512 -0.4195
 
              Baa    -0.0014    -0.749    -0.267    -0.250  0.4519  0.7735  0.4444
    53 H(1)   Bbb    -0.0012    -0.652    -0.233    -0.217  0.0446 -0.5172  0.8547
              Bcc     0.0026     1.400     0.500     0.467  0.8910 -0.3664 -0.2682
 
              Baa    -0.0044    -0.596    -0.213    -0.199  0.2460  0.8417  0.4807
    54 C(13)  Bbb    -0.0032    -0.431    -0.154    -0.144  0.5002 -0.5350  0.6808
              Bcc     0.0076     1.026     0.366     0.342  0.8302  0.0730 -0.5527
 
              Baa    -0.0082    -4.366    -1.558    -1.456  0.2097  0.7241  0.6570
    55 H(1)   Bbb    -0.0058    -3.071    -1.096    -1.025 -0.5262  0.6500 -0.5483
              Bcc     0.0139     7.438     2.654     2.481  0.8241  0.2307 -0.5173
 
              Baa    -0.0024    -1.291    -0.461    -0.431  0.2620  0.7605  0.5941
    56 H(1)   Bbb    -0.0019    -1.019    -0.364    -0.340 -0.4872  0.6356 -0.5988
              Bcc     0.0043     2.310     0.824     0.771  0.8331  0.1326 -0.5371
 
              Baa    -0.0040    -2.139    -0.763    -0.713  0.5131  0.7786  0.3613
    57 H(1)   Bbb    -0.0032    -1.687    -0.602    -0.563 -0.5201  0.6169 -0.5907
              Bcc     0.0072     3.826     1.365     1.276 -0.6828  0.1152  0.7215
 
              Baa    -0.0060    -0.807    -0.288    -0.269  0.1981  0.7307 -0.6534
    58 C(13)  Bbb    -0.0034    -0.456    -0.163    -0.152  0.6789 -0.5831 -0.4462
              Bcc     0.0094     1.263     0.451     0.421  0.7070  0.3552  0.6116
 
              Baa    -0.0028    -0.371    -0.132    -0.124 -0.3963  0.9175 -0.0345
    59 C(13)  Bbb    -0.0026    -0.351    -0.125    -0.117 -0.3074 -0.0972  0.9466
              Bcc     0.0054     0.721     0.257     0.241  0.8651  0.3858  0.3206
 
              Baa    -0.0039    -2.071    -0.739    -0.691  0.1977 -0.5823  0.7886
    60 H(1)   Bbb    -0.0035    -1.881    -0.671    -0.627 -0.5685  0.5872  0.5761
              Bcc     0.0074     3.952     1.410     1.318  0.7986  0.5622  0.2150
 
              Baa    -0.0022    -1.161    -0.414    -0.387 -0.3392  0.9407  0.0026
    61 H(1)   Bbb    -0.0020    -1.056    -0.377    -0.352 -0.1359 -0.0518  0.9894
              Bcc     0.0042     2.218     0.791     0.740  0.9308  0.3352  0.1454
 
              Baa    -0.0018    -0.960    -0.343    -0.320 -0.0121 -0.6222  0.7828
    62 H(1)   Bbb    -0.0017    -0.897    -0.320    -0.299 -0.5788  0.6427  0.5019
              Bcc     0.0035     1.857     0.663     0.619  0.8154  0.4470  0.3679
 
              Baa    -0.0043    -0.573    -0.204    -0.191  0.1112  0.9394 -0.3243
    63 C(13)  Bbb    -0.0033    -0.443    -0.158    -0.148  0.6967 -0.3064 -0.6486
              Bcc     0.0076     1.016     0.363     0.339  0.7087  0.1538  0.6885
 
              Baa    -0.0039    -2.074    -0.740    -0.692  0.1005  0.9946  0.0244
    64 H(1)   Bbb    -0.0028    -1.479    -0.528    -0.493  0.7582 -0.0607 -0.6492
              Bcc     0.0067     3.553     1.268     1.185  0.6443 -0.0837  0.7602
 
              Baa    -0.0075    -4.004    -1.429    -1.336  0.0669  0.8793 -0.4716
    65 H(1)   Bbb    -0.0051    -2.740    -0.978    -0.914  0.7729 -0.3446 -0.5328
              Bcc     0.0126     6.744     2.406     2.250  0.6309  0.3289  0.7027
 
              Baa    -0.0024    -1.307    -0.466    -0.436  0.0737  0.9155 -0.3954
    66 H(1)   Bbb    -0.0020    -1.056    -0.377    -0.352  0.7398 -0.3161 -0.5940
              Bcc     0.0044     2.363     0.843     0.788  0.6688  0.2488  0.7006
 
              Baa    -0.0020    -0.274    -0.098    -0.092 -0.1203  0.9237  0.3639
    67 C(13)  Bbb    -0.0018    -0.240    -0.086    -0.080 -0.5223 -0.3706  0.7680
              Bcc     0.0038     0.514     0.183     0.172  0.8442 -0.0977  0.5270
 
              Baa    -0.0015    -0.816    -0.291    -0.272 -0.0543  0.9125  0.4055
    68 H(1)   Bbb    -0.0014    -0.742    -0.265    -0.247 -0.5613 -0.3637  0.7434
              Bcc     0.0029     1.557     0.556     0.520  0.8259 -0.1872  0.5319
 
              Baa    -0.0012    -0.658    -0.235    -0.219  0.2814  0.7658 -0.5782
    69 H(1)   Bbb    -0.0011    -0.602    -0.215    -0.201 -0.4617  0.6363  0.6181
              Bcc     0.0024     1.260     0.450     0.420  0.8413  0.0930  0.5326
 
              Baa    -0.0014    -0.766    -0.273    -0.255  0.0833  0.9930 -0.0842
    70 H(1)   Bbb    -0.0012    -0.648    -0.231    -0.216 -0.3111  0.1062  0.9444
              Bcc     0.0027     1.414     0.505     0.472  0.9467 -0.0525  0.3178
 
              Baa    -0.0091    -1.223    -0.436    -0.408  0.6585  0.4634 -0.5930
    71 C(13)  Bbb    -0.0043    -0.582    -0.208    -0.194  0.6832 -0.0377  0.7293
              Bcc     0.0135     1.805     0.644     0.602 -0.3156  0.8853  0.3414
 
              Baa    -0.0234    -3.139    -1.120    -1.047 -0.4678  0.7092  0.5274
    72 C(13)  Bbb     0.0060     0.804     0.287     0.268  0.4347 -0.3349  0.8360
              Bcc     0.0174     2.335     0.833     0.779  0.7695  0.6203 -0.1516
 
              Baa    -0.0240    -3.225    -1.151    -1.076 -0.5746  0.8185  0.0038
    73 C(13)  Bbb     0.0062     0.836     0.298     0.279 -0.4420 -0.3141  0.8402
              Bcc     0.0178     2.389     0.853     0.797  0.6889  0.4811  0.5422
 
              Baa    -0.0034    -0.463    -0.165    -0.154  0.3134 -0.2126  0.9255
    74 C(13)  Bbb    -0.0010    -0.140    -0.050    -0.047  0.9271 -0.1425 -0.3466
              Bcc     0.0045     0.602     0.215     0.201  0.2056  0.9667  0.1524
 
              Baa    -0.0058    -3.094    -1.104    -1.032  0.2824  0.1024  0.9538
    75 H(1)   Bbb    -0.0039    -2.078    -0.742    -0.693  0.7279 -0.6705 -0.1435
              Bcc     0.0097     5.173     1.846     1.725  0.6248  0.7348 -0.2639
 
              Baa    -0.0049    -0.656    -0.234    -0.219 -0.1928 -0.3802  0.9046
    76 C(13)  Bbb    -0.0014    -0.187    -0.067    -0.062  0.9711  0.0580  0.2314
              Bcc     0.0063     0.843     0.301     0.281 -0.1404  0.9231  0.3580
 
              Baa    -0.0044    -2.355    -0.840    -0.786 -0.2038 -0.5796  0.7890
    77 H(1)   Bbb    -0.0031    -1.678    -0.599    -0.560  0.7274 -0.6290 -0.2742
              Bcc     0.0076     4.034     1.439     1.346  0.6552  0.5181  0.5498
 
              Baa    -0.0195    -2.623    -0.936    -0.875 -0.4701  0.8300  0.3002
    78 C(13)  Bbb     0.0083     1.110     0.396     0.370  0.0854 -0.2958  0.9514
              Bcc     0.0113     1.513     0.540     0.505  0.8785  0.4729  0.0681
 
              Baa    -0.0016    -0.860    -0.307    -0.287  0.4276 -0.2105  0.8791
    79 H(1)   Bbb    -0.0011    -0.573    -0.204    -0.191 -0.5369  0.7232  0.4344
              Bcc     0.0027     1.433     0.511     0.478  0.7272  0.6577 -0.1962
 
              Baa    -0.0016    -0.846    -0.302    -0.282 -0.3665 -0.2487  0.8966
    80 H(1)   Bbb    -0.0009    -0.503    -0.179    -0.168 -0.5319  0.8467  0.0174
              Bcc     0.0025     1.348     0.481     0.450  0.7634  0.4705  0.4425
 
              Baa    -0.0008    -0.104    -0.037    -0.035 -0.0209 -0.1773  0.9839
    81 C(13)  Bbb    -0.0003    -0.046    -0.016    -0.015 -0.5661  0.8133  0.1346
              Bcc     0.0011     0.150     0.054     0.050  0.8241  0.5542  0.1174
 
              Baa    -0.0008    -0.403    -0.144    -0.135 -0.0683  0.1802  0.9813
    82 H(1)   Bbb    -0.0005    -0.256    -0.092    -0.086 -0.5298  0.8269 -0.1888
              Bcc     0.0012     0.660     0.235     0.220  0.8454  0.5327 -0.0390
 
              Baa    -0.0006    -0.342    -0.122    -0.114  0.2671 -0.3958  0.8787
    83 H(1)   Bbb    -0.0004    -0.236    -0.084    -0.079 -0.5528  0.6839  0.4761
              Bcc     0.0011     0.578     0.206     0.193  0.7893  0.6129  0.0361
 
              Baa    -0.0004    -0.198    -0.071    -0.066 -0.2999  0.2310  0.9256
    84 H(1)   Bbb    -0.0003    -0.164    -0.059    -0.055 -0.4753  0.8050 -0.3549
              Bcc     0.0007     0.362     0.129     0.121  0.8271  0.5464  0.1317
 
              Baa    -0.0278     2.012     0.718     0.671 -0.4140  0.8618  0.2929
    85 O(17)  Bbb     0.0123    -0.891    -0.318    -0.297 -0.0055 -0.3242  0.9460
              Bcc     0.0155    -1.120    -0.400    -0.374  0.9103  0.3900  0.1390
 
              Baa    -0.0161    -8.580    -3.061    -2.862  0.2807  0.9564  0.0803
    86 H(1)   Bbb    -0.0110    -5.844    -2.085    -1.949  0.9259 -0.2918  0.2399
              Bcc     0.0270    14.424     5.147     4.811 -0.2529 -0.0071  0.9675
 
              Baa    -0.0061    -0.813    -0.290    -0.271  0.9465 -0.0081  0.3225
    87 C(13)  Bbb    -0.0041    -0.545    -0.195    -0.182 -0.3189 -0.1743  0.9316
              Bcc     0.0101     1.358     0.485     0.453 -0.0487  0.9847  0.1676
 
              Baa    -0.0034    -0.462    -0.165    -0.154  0.3861 -0.1751  0.9057
    88 C(13)  Bbb    -0.0016    -0.221    -0.079    -0.074  0.9080 -0.1012 -0.4066
              Bcc     0.0051     0.683     0.244     0.228  0.1629  0.9793  0.1199
 
              Baa    -0.0056    -0.748    -0.267    -0.249  0.5841  0.0098  0.8116
    89 C(13)  Bbb    -0.0038    -0.506    -0.181    -0.169  0.7853  0.2460 -0.5682
              Bcc     0.0093     1.254     0.448     0.418 -0.2052  0.9692  0.1359
 
              Baa    -0.0015    -0.205    -0.073    -0.068  0.7064  0.0944 -0.7015
    90 C(13)  Bbb    -0.0014    -0.184    -0.066    -0.062  0.7067 -0.1492  0.6916
              Bcc     0.0029     0.390     0.139     0.130  0.0393  0.9843  0.1721
 
              Baa    -0.0023    -1.254    -0.447    -0.418  0.8728 -0.2478  0.4206
    91 H(1)   Bbb    -0.0020    -1.053    -0.376    -0.351 -0.4120  0.0881  0.9069
              Bcc     0.0043     2.307     0.823     0.769  0.2618  0.9648  0.0253
 
              Baa    -0.0028    -0.369    -0.132    -0.123  0.3628 -0.1383  0.9216
    92 C(13)  Bbb    -0.0020    -0.265    -0.095    -0.088  0.8954  0.3259 -0.3036
              Bcc     0.0047     0.635     0.226     0.212 -0.2583  0.9352  0.2421
 
              Baa    -0.0080    -4.262    -1.521    -1.422  0.2443 -0.0886  0.9656
    93 H(1)   Bbb    -0.0065    -3.485    -1.244    -1.163  0.8808  0.4368 -0.1828
              Bcc     0.0145     7.747     2.764     2.584 -0.4056  0.8952  0.1847
 
              Baa    -0.0020    -0.265    -0.094    -0.088  0.4955 -0.2511  0.8315
    94 C(13)  Bbb    -0.0011    -0.142    -0.051    -0.047  0.8652  0.2270 -0.4470
              Bcc     0.0030     0.407     0.145     0.136 -0.0765  0.9410  0.3297
 
              Baa    -0.0010    -0.542    -0.194    -0.181  0.7866 -0.2209  0.5766
    95 H(1)   Bbb    -0.0010    -0.521    -0.186    -0.174 -0.6034 -0.0772  0.7937
              Bcc     0.0020     1.064     0.379     0.355  0.1308  0.9722  0.1940
 
              Baa    -0.0019    -1.035    -0.369    -0.345  0.7444  0.0987  0.6604
    96 H(1)   Bbb    -0.0018    -0.956    -0.341    -0.319 -0.5373 -0.4987  0.6802
              Bcc     0.0037     1.991     0.710     0.664 -0.3965  0.8611  0.3182
 
              Baa    -0.0010    -0.516    -0.184    -0.172  0.6087 -0.1723  0.7745
    97 H(1)   Bbb    -0.0009    -0.477    -0.170    -0.159  0.7807  0.3038 -0.5460
              Bcc     0.0019     0.994     0.355     0.331 -0.1412  0.9370  0.3194
 

 ---------------------------------------------------------------------------------

 1\1\GINC-M9-14-3\SP\UM06L\Gen\C41H46Cl1N4Ni2O3(4)\MALLA1\24-Aug-2022\0
 \\#m06l/gen pseudo=read integral=ultrafine temperature=308 scrf=(read)
 \\Title Card Required\\0,4\C,0,1.155659,-2.948423,3.230917\C,0,-0.0037
 42,-2.672165,3.97027\C,0,-1.069784,-1.931127,3.383696\C,0,-0.873767,-1
 .438176,2.033157\C,0,1.258959,-2.437378,1.922738\H,0,-2.504419,-1.9963
 71,5.039563\H,0,1.968239,-3.561194,3.646834\H,0,-0.115552,-3.054492,4.
 996759\C,0,-2.327249,-1.661861,4.00589\C,0,-3.079909,-0.621776,1.95046
 5\C,0,-3.335621,-1.023159,3.278276\H,0,-4.333613,-0.856128,3.709339\N,
 0,-1.846116,-0.769152,1.359412\N,0,0.280575,-1.668942,1.368935\C,0,2.3
 24799,-2.724456,0.967693\C,0,-4.066541,-0.122275,1.018857\N,0,2.393041
 ,-2.13804,-0.198792\N,0,-3.750778,0.118902,-0.236137\Ni,0,-1.698789,0.
 027726,-0.493559\C,0,0.094602,1.047378,-0.485605\C,0,1.119866,0.985186
 ,0.506783\C,0,-1.533402,1.55836,-2.063571\H,0,-2.530865,1.958833,-2.30
 047\C,0,-0.530376,2.279103,-1.176713\H,0,0.244016,2.808791,-1.795631\C
 ,0,-0.929999,0.507749,-2.745413\H,0,-1.482959,-0.149402,-3.43324\C,0,0
 .494158,0.293396,-2.450165\H,0,1.170725,1.136264,-2.690252\H,0,0.77564
 9,0.794037,1.540159\C,0,-5.991554,0.700552,0.226334\H,0,-6.131433,1.77
 9946,0.445824\H,0,-6.984409,0.228223,0.101846\C,0,3.99293,-3.894757,0.
 026191\H,0,3.849076,-4.938795,-0.315408\H,0,5.059632,-3.748596,0.29041
 8\C,0,3.444907,-2.832282,-0.979394\H,0,2.935142,-3.341026,-1.829121\C,
 0,-5.003184,0.450705,-0.949264\H,0,-4.857205,1.386696,-1.532476\O,0,3.
 206582,-3.710669,1.237164\O,0,-5.349355,0.089026,1.385352\Ni,0,0.66132
 4,-0.870721,-0.455003\Cl,0,-0.788435,-2.486796,-1.497727\C,0,4.545457,
 -1.91626,-1.606501\C,0,5.298545,-1.119283,-0.52291\H,0,4.608202,-0.468
 365,0.050825\H,0,5.829021,-1.779415,0.195738\H,0,6.066199,-0.468309,-0
 .990595\C,0,5.530843,-2.820459,-2.383106\H,0,5.007429,-3.414224,-3.162
 946\H,0,6.299125,-2.200899,-2.891177\H,0,6.069554,-3.528987,-1.718699\
 C,0,3.880914,-0.939356,-2.595178\H,0,3.184083,-0.260141,-2.067841\H,0,
 4.648505,-0.316882,-3.10126\H,0,3.311688,-1.482263,-3.379698\C,0,-5.45
 2716,-0.659543,-1.964862\C,0,-5.710141,-2.000429,-1.245353\H,0,-4.7911
 73,-2.369613,-0.745453\H,0,-6.515622,-1.925668,-0.484812\H,0,-6.023303
 ,-2.772701,-1.978603\C,0,-4.346003,-0.855496,-3.021057\H,0,-4.13028,0.
 092865,-3.558603\H,0,-3.406037,-1.219012,-2.557942\H,0,-4.665341,-1.60
 3008,-3.777416\C,0,-6.740475,-0.177173,-2.669791\H,0,-6.57893,0.791554
 ,-3.189824\H,0,-7.059532,-0.918071,-3.432193\H,0,-7.589035,-0.047835,-
 1.965073\C,0,2.48121,1.528353,0.453097\C,0,3.044814,2.177233,-0.677055
 \C,0,3.286539,1.477698,1.629764\C,0,4.32779,2.747714,-0.645953\H,0,2.4
 61458,2.258834,-1.605484\C,0,4.5615,2.041183,1.676468\H,0,2.882598,0.9
 86298,2.530084\C,0,5.101081,2.685231,0.535568\H,0,4.711752,3.247025,-1
 .546866\H,0,5.169953,2.000617,2.593178\C,0,6.939288,3.878017,-0.435895
 \H,0,7.061996,3.198249,-1.308597\H,0,6.340469,4.762167,-0.749551\H,0,7
 .937123,4.219015,-0.101976\O,0,6.351655,3.210235,0.675518\H,0,0.909684
 ,-0.671659,-2.792811\C,0,-1.040093,3.318226,-0.183916\C,0,-0.218229,4.
 424917,0.127047\C,0,-2.296118,3.219174,0.451763\C,0,-0.635767,5.40293,
 1.046331\H,0,0.765637,4.519242,-0.361753\C,0,-2.72041,4.198772,1.36763
 2\H,0,-2.940399,2.354806,0.228435\C,0,-1.891358,5.293875,1.670633\H,0,
 0.022968,6.256569,1.273379\H,0,-3.707023,4.10459,1.849634\H,0,-2.22301
 5,6.060217,2.389424\\Version=ES64L-G16RevB.01\State=4-A\HF=-2834.17920
 74\S2=3.895562\S2-1=0.\S2A=3.754368\RMSD=2.193e-09\Dipole=0.5732004,1.
 4704518,0.5414332\Quadrupole=25.9145723,-16.6560584,-9.2585138,-6.2854
 397,-9.1745178,-11.4605809\PG=C01 [X(C41H46Cl1N4Ni2O3)]\\@


 HE THAT WALD REACHE THE SWEITE ROSE
 SULD NOW AND THEN BE SCRATCHED WT THE SCHARPE BREERES.
 -- PROVERBS AND REASONS OF THE YEAR 1585
           AS REPRINTED IN PAISLEY MAGAZINE 1828.
 Job cpu time:       1 days 12 hours  5 minutes 54.6 seconds.
 Elapsed time:       0 days  3 hours  0 minutes 42.4 seconds.
 File lengths (MBytes):  RWF=   3686 Int=      0 D2E=      0 Chk=    238 Scr=      1
 Normal termination of Gaussian 16 at Wed Aug 24 18:19:16 2022.
