 Entering Gaussian System, Link 0=g16
 Input=Pro_R_E_e_4_m06l.com
 Output=Pro_R_E_e_4_m06l.log
 Initial command:
 /apps/gaussian16/B.01/AVX2/g16/l1.exe "/tmp/51822076/Gau-26127.inp" -scrdir="/tmp/51822076/"
 Entering Link 1 = /apps/gaussian16/B.01/AVX2/g16/l1.exe PID=     26128.
  
 Copyright (c) 1988-2017, Gaussian, Inc.  All Rights Reserved.
  
 This is part of the Gaussian(R) 16 program.  It is based on
 the Gaussian(R) 09 system (copyright 2009, Gaussian, Inc.),
 the Gaussian(R) 03 system (copyright 2003, Gaussian, Inc.),
 the Gaussian(R) 98 system (copyright 1998, Gaussian, Inc.),
 the Gaussian(R) 94 system (copyright 1995, Gaussian, Inc.),
 the Gaussian 92(TM) system (copyright 1992, Gaussian, Inc.),
 the Gaussian 90(TM) system (copyright 1990, Gaussian, Inc.),
 the Gaussian 88(TM) system (copyright 1988, Gaussian, Inc.),
 the Gaussian 86(TM) system (copyright 1986, Carnegie Mellon
 University), and the Gaussian 82(TM) system (copyright 1983,
 Carnegie Mellon University). Gaussian is a federally registered
 trademark of Gaussian, Inc.
  
 This software contains proprietary and confidential information,
 including trade secrets, belonging to Gaussian, Inc.
  
 This software is provided under written license and may be
 used, copied, transmitted, or stored only in accord with that
 written license.
  
 The following legend is applicable only to US Government
 contracts under FAR:
  
                    RESTRICTED RIGHTS LEGEND
  
 Use, reproduction and disclosure by the US Government is
 subject to restrictions as set forth in subparagraphs (a)
 and (c) of the Commercial Computer Software - Restricted
 Rights clause in FAR 52.227-19.
  
 Gaussian, Inc.
 340 Quinnipiac St., Bldg. 40, Wallingford CT 06492
  
  
 ---------------------------------------------------------------
 Warning -- This program may not be used in any manner that
 competes with the business of Gaussian, Inc. or will provide
 assistance to any competitor of Gaussian, Inc.  The licensee
 of this program is prohibited from giving any competitor of
 Gaussian, Inc. access to this program.  By using this program,
 the user acknowledges that Gaussian, Inc. is engaged in the
 business of creating and licensing software in the field of
 computational chemistry and represents and warrants to the
 licensee that it is not a competitor of Gaussian, Inc. and that
 it will not use this program in any manner prohibited above.
 ---------------------------------------------------------------
  

 Cite this work as:
 Gaussian 16, Revision B.01,
 M. J. Frisch, G. W. Trucks, H. B. Schlegel, G. E. Scuseria, 
 M. A. Robb, J. R. Cheeseman, G. Scalmani, V. Barone, 
 G. A. Petersson, H. Nakatsuji, X. Li, M. Caricato, A. V. Marenich, 
 J. Bloino, B. G. Janesko, R. Gomperts, B. Mennucci, H. P. Hratchian, 
 J. V. Ortiz, A. F. Izmaylov, J. L. Sonnenberg, D. Williams-Young, 
 F. Ding, F. Lipparini, F. Egidi, J. Goings, B. Peng, A. Petrone, 
 T. Henderson, D. Ranasinghe, V. G. Zakrzewski, J. Gao, N. Rega, 
 G. Zheng, W. Liang, M. Hada, M. Ehara, K. Toyota, R. Fukuda, 
 J. Hasegawa, M. Ishida, T. Nakajima, Y. Honda, O. Kitao, H. Nakai, 
 T. Vreven, K. Throssell, J. A. Montgomery, Jr., J. E. Peralta, 
 F. Ogliaro, M. J. Bearpark, J. J. Heyd, E. N. Brothers, K. N. Kudin, 
 V. N. Staroverov, T. A. Keith, R. Kobayashi, J. Normand, 
 K. Raghavachari, A. P. Rendell, J. C. Burant, S. S. Iyengar, 
 J. Tomasi, M. Cossi, J. M. Millam, M. Klene, C. Adamo, R. Cammi, 
 J. W. Ochterski, R. L. Martin, K. Morokuma, O. Farkas, 
 J. B. Foresman, and D. J. Fox, Gaussian, Inc., Wallingford CT, 2016.
 
 ******************************************
 Gaussian 16:  ES64L-G16RevB.01 20-Dec-2017
                24-Aug-2022 
 ******************************************
 %nprocshared=12
 Will use up to   12 processors via shared memory.
 %mem=24GB
 --------------------------------------------------------------------
 #m06l/gen pseudo=read integral=ultrafine temperature=308 scrf=(read)
 --------------------------------------------------------------------
 1/38=1,40=2,112=308000,172=1/1;
 2/12=2,17=6,18=5,40=1/2;
 3/5=7,11=2,16=1,17=8,25=1,30=1,70=2203,74=-53,75=-5/1,2,3;
 4//1;
 5/5=2,38=5/2;
 6/7=2,8=2,9=2,10=2,28=1/1;
 99/5=1,9=1/99;
 -------------------
 Title Card Required
 -------------------
 Symbolic Z-matrix:
 Charge =  0 Multiplicity = 4
 C                    -1.88603  -3.14545   2.1378 
 C                    -0.91283  -4.12398   1.90751 
 C                     0.33294  -3.75413   1.31974 
 C                     0.49124  -2.37766   0.87509 
 C                    -1.6554   -1.83032   1.69266 
 H                     1.34815  -5.68289   1.47828 
 H                    -2.81196  -3.37345   2.6853 
 H                    -1.06778  -5.16277   2.23787 
 C                     1.44673  -4.63016   1.17119 
 C                     2.7519   -2.779     0.33065 
 C                     2.66365  -4.13796   0.68515 
 H                     3.55186  -4.78116   0.60327 
 N                     1.67448  -1.92726   0.38862 
 N                    -0.53366  -1.48485   0.96891 
 C                    -2.45518  -0.68681   2.09339 
 C                     3.97369  -2.09868  -0.06416 
 N                    -2.15717   0.5395    1.74384 
 N                     3.99413  -0.81214  -0.30316 
 Ni                    2.02515  -0.0737   -0.35333 
 C                    -0.39094   0.45561  -1.84624 
 C                    -1.74146   0.57828  -1.48466 
 C                     1.77054  -0.38134  -2.31842 
 H                     2.57258  -1.03453  -2.69859 
 C                     0.30644  -0.77083  -2.43366 
 H                     0.00085  -0.8771   -3.5086 
 C                     1.89104   1.01949  -2.15235 
 H                     2.80273   1.59168  -2.3883 
 C                     0.50299   1.64255  -2.29224 
 H                     0.30116   1.71318  -3.39714 
 H                    -2.10128   1.62079  -1.3919 
 C                     6.14162  -1.79154  -0.57518 
 H                     6.57367  -2.10619  -1.54593 
 H                     6.94158  -1.80865   0.19274 
 C                    -3.98474   0.47728   3.24919 
 H                    -4.11952   0.58993   4.34131 
 H                    -4.97458   0.54997   2.74933 
 C                    -2.9261    1.43648   2.64017 
 H                    -2.21802   1.75978   3.44157 
 C                     5.37447  -0.43147  -0.64953 
 H                     5.38229  -0.0466   -1.69564 
 O                    -3.45199  -0.85449   2.99837 
 O                     5.13839  -2.77601  -0.18878 
 Ni                   -0.55812   0.44659   0.33447 
 Cl                    1.34434   1.18501   1.56676 
 C                    -3.48348   2.74583   2.00984 
 C                    -4.45778   2.45409   0.85262 
 H                    -3.98327   1.80794   0.08884 
 H                    -5.38324   1.94517   1.19484 
 H                    -4.76759   3.40061   0.3623 
 C                    -4.2119    3.53838   3.12059 
 H                    -3.53579   3.75307   3.9757 
 H                    -4.57237   4.51105   2.72521 
 H                    -5.09759   2.99394   3.5119 
 C                    -2.29736   3.58356   1.49153 
 H                    -1.74922   3.0617    0.68102 
 H                    -2.65211   4.55344   1.08559 
 H                    -1.57032   3.79874   2.30254 
 C                     5.94774   0.71302   0.25258 
 C                     5.8688    0.32662   1.74365 
 H                     4.81727   0.14837   2.04916 
 H                     6.45678  -0.58723   1.97496 
 H                     6.27437   1.14436   2.37523 
 C                     5.11731   1.99107   0.00957 
 H                     5.16795   2.3059   -1.05487 
 H                     4.05126   1.83112   0.272 
 H                     5.50427   2.82847   0.62756 
 C                     7.41314   0.977    -0.15921 
 H                     7.49083   1.23236  -1.23804 
 H                     7.82625   1.83056   0.41787 
 H                     8.07133   0.10332   0.03327 
 C                    -2.84282  -0.40037  -1.65639 
 C                    -2.72364  -1.80603  -1.53885 
 C                    -4.12489   0.10118  -2.01744 
 C                    -3.80808  -2.66921  -1.77034 
 H                    -1.76565  -2.24755  -1.23408 
 C                    -5.21333  -0.74208  -2.2559 
 H                    -4.2615    1.1882   -2.13637 
 C                    -5.06801  -2.1437   -2.13409 
 H                    -3.65881  -3.7521   -1.65542 
 H                    -6.19543  -0.33614  -2.54355 
 C                    -6.08895  -4.30735  -2.26907 
 H                    -5.34876  -4.73145  -2.984 
 H                    -5.81405  -4.62236  -1.23752 
 H                    -7.09225  -4.70514  -2.51146 
 O                    -6.18152  -2.89142  -2.38202 
 H                     0.06483  -1.73004  -1.93943 
 C                     0.24696   3.04522  -1.77049 
 C                    -0.78637   3.82046  -2.35084 
 C                     1.05208   3.64479  -0.77825 
 C                    -1.01866   5.14519  -1.94399 
 H                    -1.40276   3.38337  -3.15478 
 C                     0.82754   4.97381  -0.3751 
 H                     1.85539   3.05409  -0.31542 
 C                    -0.20828   5.72877  -0.95264 
 H                    -1.82621   5.72944  -2.41421 
 H                     1.47224   5.42262   0.39785 
 H                    -0.37898   6.77105  -0.63839 
 
 Stoichiometry    C41H46ClN4Ni2O3(4)
 Framework group  C1[X(C41H46ClN4Ni2O3)]
 Deg. of freedom   285
 Full point group                 C1      NOp   1
 Largest Abelian subgroup         C1      NOp   1
 Largest concise Abelian subgroup C1      NOp   1
                         Standard orientation:                         
 ---------------------------------------------------------------------
 Center     Atomic      Atomic             Coordinates (Angstroms)
 Number     Number       Type             X           Y           Z
 ---------------------------------------------------------------------
      1          6           0       -1.886029   -3.145451    2.137798
      2          6           0       -0.912828   -4.123982    1.907511
      3          6           0        0.332943   -3.754133    1.319743
      4          6           0        0.491240   -2.377656    0.875089
      5          6           0       -1.655403   -1.830320    1.692655
      6          1           0        1.348154   -5.682888    1.478284
      7          1           0       -2.811958   -3.373448    2.685301
      8          1           0       -1.067775   -5.162770    2.237873
      9          6           0        1.446725   -4.630155    1.171191
     10          6           0        2.751897   -2.778999    0.330652
     11          6           0        2.663647   -4.137963    0.685146
     12          1           0        3.551859   -4.781164    0.603267
     13          7           0        1.674482   -1.927263    0.388623
     14          7           0       -0.533664   -1.484851    0.968911
     15          6           0       -2.455177   -0.686810    2.093390
     16          6           0        3.973686   -2.098680   -0.064157
     17          7           0       -2.157173    0.539496    1.743837
     18          7           0        3.994129   -0.812144   -0.303158
     19         28           0        2.025146   -0.073698   -0.353330
     20          6           0       -0.390938    0.455606   -1.846237
     21          6           0       -1.741455    0.578276   -1.484658
     22          6           0        1.770542   -0.381344   -2.318418
     23          1           0        2.572582   -1.034530   -2.698592
     24          6           0        0.306439   -0.770834   -2.433655
     25          1           0        0.000850   -0.877100   -3.508603
     26          6           0        1.891038    1.019488   -2.152352
     27          1           0        2.802727    1.591679   -2.388303
     28          6           0        0.502986    1.642551   -2.292236
     29          1           0        0.301161    1.713179   -3.397138
     30          1           0       -2.101277    1.620791   -1.391903
     31          6           0        6.141616   -1.791541   -0.575184
     32          1           0        6.573673   -2.106194   -1.545934
     33          1           0        6.941577   -1.808646    0.192739
     34          6           0       -3.984735    0.477277    3.249190
     35          1           0       -4.119518    0.589927    4.341308
     36          1           0       -4.974577    0.549968    2.749328
     37          6           0       -2.926098    1.436482    2.640171
     38          1           0       -2.218025    1.759776    3.441574
     39          6           0        5.374474   -0.431470   -0.649527
     40          1           0        5.382292   -0.046598   -1.695635
     41          8           0       -3.451989   -0.854491    2.998374
     42          8           0        5.138389   -2.776007   -0.188780
     43         28           0       -0.558120    0.446593    0.334467
     44         17           0        1.344337    1.185007    1.566756
     45          6           0       -3.483484    2.745830    2.009842
     46          6           0       -4.457784    2.454091    0.852618
     47          1           0       -3.983273    1.807939    0.088840
     48          1           0       -5.383243    1.945172    1.194839
     49          1           0       -4.767588    3.400612    0.362297
     50          6           0       -4.211905    3.538384    3.120594
     51          1           0       -3.535789    3.753069    3.975702
     52          1           0       -4.572367    4.511050    2.725208
     53          1           0       -5.097592    2.993935    3.511904
     54          6           0       -2.297362    3.583556    1.491534
     55          1           0       -1.749223    3.061699    0.681019
     56          1           0       -2.652113    4.553437    1.085587
     57          1           0       -1.570315    3.798736    2.302535
     58          6           0        5.947744    0.713023    0.252580
     59          6           0        5.868795    0.326623    1.743649
     60          1           0        4.817265    0.148372    2.049158
     61          1           0        6.456779   -0.587226    1.974958
     62          1           0        6.274367    1.144357    2.375230
     63          6           0        5.117313    1.991068    0.009569
     64          1           0        5.167947    2.305902   -1.054871
     65          1           0        4.051256    1.831115    0.271996
     66          1           0        5.504267    2.828469    0.627557
     67          6           0        7.413137    0.977001   -0.159210
     68          1           0        7.490828    1.232356   -1.238036
     69          1           0        7.826249    1.830564    0.417874
     70          1           0        8.071335    0.103316    0.033273
     71          6           0       -2.842823   -0.400365   -1.656393
     72          6           0       -2.723637   -1.806026   -1.538850
     73          6           0       -4.124888    0.101178   -2.017445
     74          6           0       -3.808075   -2.669210   -1.770335
     75          1           0       -1.765650   -2.247546   -1.234078
     76          6           0       -5.213326   -0.742080   -2.255899
     77          1           0       -4.261499    1.188198   -2.136365
     78          6           0       -5.068007   -2.143695   -2.134085
     79          1           0       -3.658814   -3.752095   -1.655419
     80          1           0       -6.195435   -0.336138   -2.543550
     81          6           0       -6.088951   -4.307352   -2.269066
     82          1           0       -5.348759   -4.731452   -2.983999
     83          1           0       -5.814049   -4.622359   -1.237517
     84          1           0       -7.092251   -4.705142   -2.511460
     85          8           0       -6.181515   -2.891423   -2.382021
     86          1           0        0.064834   -1.730042   -1.939430
     87          6           0        0.246959    3.045223   -1.770493
     88          6           0       -0.786373    3.820458   -2.350839
     89          6           0        1.052081    3.644792   -0.778252
     90          6           0       -1.018660    5.145189   -1.943990
     91          1           0       -1.402761    3.383367   -3.154781
     92          6           0        0.827536    4.973811   -0.375102
     93          1           0        1.855390    3.054091   -0.315424
     94          6           0       -0.208284    5.728773   -0.952644
     95          1           0       -1.826206    5.729439   -2.414205
     96          1           0        1.472242    5.422623    0.397846
     97          1           0       -0.378981    6.771048   -0.638389
 ---------------------------------------------------------------------
 Rotational constants (GHZ):           0.0748589           0.0466575           0.0378635
 General basis read from cards:  (5D, 7F)
 ======================================================================================================
                                       Pseudopotential Parameters
 ======================================================================================================
  Center     Atomic      Valence      Angular      Power
  Number     Number     Electrons     Momentum     of R      Exponent        Coefficient   SO-Coeffient
 ======================================================================================================
    1          6
                                   No pseudopotential on this center.
    2          6
                                   No pseudopotential on this center.
    3          6
                                   No pseudopotential on this center.
    4          6
                                   No pseudopotential on this center.
    5          6
                                   No pseudopotential on this center.
    6          1
                                   No pseudopotential on this center.
    7          1
                                   No pseudopotential on this center.
    8          1
                                   No pseudopotential on this center.
    9          6
                                   No pseudopotential on this center.
   10          6
                                   No pseudopotential on this center.
   11          6
                                   No pseudopotential on this center.
   12          1
                                   No pseudopotential on this center.
   13          7
                                   No pseudopotential on this center.
   14          7
                                   No pseudopotential on this center.
   15          6
                                   No pseudopotential on this center.
   16          6
                                   No pseudopotential on this center.
   17          7
                                   No pseudopotential on this center.
   18          7
                                   No pseudopotential on this center.
   19         28           18
                                      D and up 
                                                     1      469.9324331      -10.00000000    0.00000000
                                                     2       85.4236411      -69.40848050    0.00000000
                                                     2       21.2674984      -12.09510200    0.00000000
                                      S - D
                                                     0      162.1686097        3.00000000    0.00000000
                                                     1      176.5333232       22.02536180    0.00000000
                                                     2       68.9562010      443.01810880    0.00000000
                                                     2       13.5792838      145.56964110    0.00000000
                                      P - D
                                                     0       69.0181506        5.00000000    0.00000000
                                                     1      275.5955596        4.98828240    0.00000000
                                                     2       47.1315453      256.69458530    0.00000000
                                                     2       12.9874075       78.47544500    0.00000000
   20          6
                                   No pseudopotential on this center.
   21          6
                                   No pseudopotential on this center.
   22          6
                                   No pseudopotential on this center.
   23          1
                                   No pseudopotential on this center.
   24          6
                                   No pseudopotential on this center.
   25          1
                                   No pseudopotential on this center.
   26          6
                                   No pseudopotential on this center.
   27          1
                                   No pseudopotential on this center.
   28          6
                                   No pseudopotential on this center.
   29          1
                                   No pseudopotential on this center.
   30          1
                                   No pseudopotential on this center.
   31          6
                                   No pseudopotential on this center.
   32          1
                                   No pseudopotential on this center.
   33          1
                                   No pseudopotential on this center.
   34          6
                                   No pseudopotential on this center.
   35          1
                                   No pseudopotential on this center.
   36          1
                                   No pseudopotential on this center.
   37          6
                                   No pseudopotential on this center.
   38          1
                                   No pseudopotential on this center.
   39          6
                                   No pseudopotential on this center.
   40          1
                                   No pseudopotential on this center.
   41          8
                                   No pseudopotential on this center.
   42          8
                                   No pseudopotential on this center.
   43         28           18
                                      D and up 
                                                     1      469.9324331      -10.00000000    0.00000000
                                                     2       85.4236411      -69.40848050    0.00000000
                                                     2       21.2674984      -12.09510200    0.00000000
                                      S - D
                                                     0      162.1686097        3.00000000    0.00000000
                                                     1      176.5333232       22.02536180    0.00000000
                                                     2       68.9562010      443.01810880    0.00000000
                                                     2       13.5792838      145.56964110    0.00000000
                                      P - D
                                                     0       69.0181506        5.00000000    0.00000000
                                                     1      275.5955596        4.98828240    0.00000000
                                                     2       47.1315453      256.69458530    0.00000000
                                                     2       12.9874075       78.47544500    0.00000000
   44         17
                                   No pseudopotential on this center.
   45          6
                                   No pseudopotential on this center.
   46          6
                                   No pseudopotential on this center.
   47          1
                                   No pseudopotential on this center.
   48          1
                                   No pseudopotential on this center.
   49          1
                                   No pseudopotential on this center.
   50          6
                                   No pseudopotential on this center.
   51          1
                                   No pseudopotential on this center.
   52          1
                                   No pseudopotential on this center.
   53          1
                                   No pseudopotential on this center.
   54          6
                                   No pseudopotential on this center.
   55          1
                                   No pseudopotential on this center.
   56          1
                                   No pseudopotential on this center.
   57          1
                                   No pseudopotential on this center.
   58          6
                                   No pseudopotential on this center.
   59          6
                                   No pseudopotential on this center.
   60          1
                                   No pseudopotential on this center.
   61          1
                                   No pseudopotential on this center.
   62          1
                                   No pseudopotential on this center.
   63          6
                                   No pseudopotential on this center.
   64          1
                                   No pseudopotential on this center.
   65          1
                                   No pseudopotential on this center.
   66          1
                                   No pseudopotential on this center.
   67          6
                                   No pseudopotential on this center.
   68          1
                                   No pseudopotential on this center.
   69          1
                                   No pseudopotential on this center.
   70          1
                                   No pseudopotential on this center.
   71          6
                                   No pseudopotential on this center.
   72          6
                                   No pseudopotential on this center.
   73          6
                                   No pseudopotential on this center.
   74          6
                                   No pseudopotential on this center.
   75          1
                                   No pseudopotential on this center.
   76          6
                                   No pseudopotential on this center.
   77          1
                                   No pseudopotential on this center.
   78          6
                                   No pseudopotential on this center.
   79          1
                                   No pseudopotential on this center.
   80          1
                                   No pseudopotential on this center.
   81          6
                                   No pseudopotential on this center.
   82          1
                                   No pseudopotential on this center.
   83          1
                                   No pseudopotential on this center.
   84          1
                                   No pseudopotential on this center.
   85          8
                                   No pseudopotential on this center.
   86          1
                                   No pseudopotential on this center.
   87          6
                                   No pseudopotential on this center.
   88          6
                                   No pseudopotential on this center.
   89          6
                                   No pseudopotential on this center.
   90          6
                                   No pseudopotential on this center.
   91          1
                                   No pseudopotential on this center.
   92          6
                                   No pseudopotential on this center.
   93          1
                                   No pseudopotential on this center.
   94          6
                                   No pseudopotential on this center.
   95          1
                                   No pseudopotential on this center.
   96          1
                                   No pseudopotential on this center.
   97          1
                                   No pseudopotential on this center.
 ======================================================================================================
 There are  2094 symmetry adapted cartesian basis functions of A   symmetry.
 There are  1845 symmetry adapted basis functions of A   symmetry.
  1845 basis functions,  2989 primitive gaussians,  2094 cartesian basis functions
   200 alpha electrons      197 beta electrons
       nuclear repulsion energy      8555.7988392657 Hartrees.
 NAtoms=   97 NActive=   97 NUniq=   97 SFac= 1.00D+00 NAtFMM=   60 NAOKFM=T Big=T
 Integral buffers will be    131072 words long.
 Raffenetti 2 integral format.
 Two-electron integral symmetry is turned on.
 Using the following non-standard input for PCM:
 Eps=4.5
 --- end of non-standard input.
 ------------------------------------------------------------------------------
 Polarizable Continuum Model (PCM)
 =================================
 Model                : PCM.
 Atomic radii         : UFF (Universal Force Field).
 Polarization charges : Total charges.
 Charge compensation  : None.
 Solution method      : On-the-fly selection.
 Cavity type          : Scaled VdW (van der Waals Surface) (Alpha=1.100).
 Cavity algorithm     : GePol (No added spheres)
                        Default sphere list used, NSphG=   97.
                        Lebedev-Laikov grids with approx.  5.0 points / Ang**2.
                        Smoothing algorithm: York/Karplus (Gamma=1.0000).
                        Polarization charges: spherical gaussians, with
                                              point-specific exponents (IZeta= 3).
                        Self-potential: point-specific (ISelfS= 7).
                        Self-field    : sphere-specific E.n sum rule (ISelfD= 2).
 Solvent              : Water, Eps=   4.500000 Eps(inf)=   1.777849
 ------------------------------------------------------------------------------
 One-electron integrals computed using PRISM.
   1 Symmetry operations used in ECPInt.
 ECPInt:  NShTT=  274911 NPrTT=  843013 LenC2=  204821 LenP2D=  411343.
 LDataN:  DoStor=T MaxTD1= 6 Len=  172
 NBasis=  1845 RedAO= T EigKep=  6.48D-06  NBF=  1845
 NBsUse=  1845 1.00D-06 EigRej= -1.00D+00 NBFU=  1845
 ExpMin= 2.40D-02 ExpMax= 6.95D+04 ExpMxC= 2.37D+03 IAcc=3 IRadAn=         5 AccDes= 0.00D+00
 Harris functional with IExCor= 1009 and IRadAn=       5 diagonalized for initial guess.
 HarFok:  IExCor= 1009 AccDes= 0.00D+00 IRadAn=         5 IDoV= 1 UseB2=F ITyADJ=14
 ICtDFT=  3500011 ScaDFX=  1.000000  1.000000  1.000000  1.000000
 FoFCou: FMM=F IPFlag=           0 FMFlag=      100000 FMFlg1=        2001
         NFxFlg=           0 DoJE=T BraDBF=F KetDBF=T FulRan=T
         wScrn=  0.000000 ICntrl=       500 IOpCl=  0 I1Cent=   200000004 NGrid=           0
         NMat0=    1 NMatS0=      1 NMatT0=    0 NMatD0=    1 NMtDS0=    0 NMtDT0=    0
 Petite list used in FoFCou.
 Initial guess <Sx>= 0.0000 <Sy>= 0.0000 <Sz>= 1.5000 <S**2>= 3.7500 S= 1.5000
 Requested convergence on RMS density matrix=1.00D-08 within 128 cycles.
 Requested convergence on MAX density matrix=1.00D-06.
 Requested convergence on             energy=1.00D-06.
 No special actions if energy rises.
 Inv3:  Mode=1 IEnd=   103793772.
 Iteration    1 A*A^-1 deviation from unit magnitude is 3.55D-15 for   3686.
 Iteration    1 A*A^-1 deviation from orthogonality  is 2.48D-15 for   5606   3864.
 Iteration    1 A^-1*A deviation from unit magnitude is 3.55D-15 for   3686.
 Iteration    1 A^-1*A deviation from orthogonality  is 6.93D-13 for   3747   3709.
 EnCoef did   100 forward-backward iterations
 EnCoef did   100 forward-backward iterations
 EnCoef did   100 forward-backward iterations
 EnCoef did   100 forward-backward iterations
 EnCoef did     3 forward-backward iterations
 EnCoef did   100 forward-backward iterations
 EnCoef did     7 forward-backward iterations
 EnCoef did     3 forward-backward iterations
 Restarting incremental Fock formation.
 Error on total polarization charges =  0.01564
 SCF Done:  E(UM06L) =  -2834.26715128     A.U. after   33 cycles
            NFock= 33  Conv=0.23D-08     -V/T= 2.0516
 <Sx>= 0.0000 <Sy>= 0.0000 <Sz>= 1.5000 <S**2>= 3.8454 S= 1.5237
 <L.S>=  0.00000000000    
 Annihilation of the first spin contaminant:
 S**2 before annihilation     3.8454,   after     3.7535

 **********************************************************************

            Population analysis using the SCF Density.

 **********************************************************************

 Orbital symmetries:
 Alpha Orbitals:
       Occupied  (A) (A) (A) (A) (A) (A) (A) (A) (A) (A) (A) (A)
                 (A) (A) (A) (A) (A) (A) (A) (A) (A) (A) (A) (A)
                 (A) (A) (A) (A) (A) (A) (A) (A) (A) (A) (A) (A)
                 (A) (A) (A) (A) (A) (A) (A) (A) (A) (A) (A) (A)
                 (A) (A) (A) (A) (A) (A) (A) (A) (A) (A) (A) (A)
                 (A) (A) (A) (A) (A) (A) (A) (A) (A) (A) (A) (A)
                 (A) (A) (A) (A) (A) (A) (A) (A) (A) (A) (A) (A)
                 (A) (A) (A) (A) (A) (A) (A) (A) (A) (A) (A) (A)
                 (A) (A) (A) (A) (A) (A) (A) (A) (A) (A) (A) (A)
                 (A) (A) (A) (A) (A) (A) (A) (A) (A) (A) (A) (A)
                 (A) (A) (A) (A) (A) (A) (A) (A) (A) (A) (A) (A)
                 (A) (A) (A) (A) (A) (A) (A) (A) (A) (A) (A) (A)
                 (A) (A) (A) (A) (A) (A) (A) (A) (A) (A) (A) (A)
                 (A) (A) (A) (A) (A) (A) (A) (A) (A) (A) (A) (A)
                 (A) (A) (A) (A) (A) (A) (A) (A) (A) (A) (A) (A)
                 (A) (A) (A) (A) (A) (A) (A) (A) (A) (A) (A) (A)
                 (A) (A) (A) (A) (A) (A) (A) (A)
       Virtual   (A) (A) (A) (A) (A) (A) (A) (A) (A) (A) (A) (A)
                 (A) (A) (A) (A) (A) (A) (A) (A) (A) (A) (A) (A)
                 (A) (A) (A) (A) (A) (A) (A) (A) (A) (A) (A) (A)
                 (A) (A) (A) (A) (A) (A) (A) (A) (A) (A) (A) (A)
                 (A) (A) (A) (A) (A) (A) (A) (A) (A) (A) (A) (A)
                 (A) (A) (A) (A) (A) (A) (A) (A) (A) (A) (A) (A)
                 (A) (A) (A) (A) (A) (A) (A) (A) (A) (A) (A) (A)
                 (A) (A) (A) (A) (A) (A) (A) (A) (A) (A) (A) (A)
                 (A) (A) (A) (A) (A) (A) (A) (A) (A) (A) (A) (A)
                 (A) (A) (A) (A) (A) (A) (A) (A) (A) (A) (A) (A)
                 (A) (A) (A) (A) (A) (A) (A) (A) (A) (A) (A) (A)
                 (A) (A) (A) (A) (A) (A) (A) (A) (A) (A) (A) (A)
                 (A) (A) (A) (A) (A) (A) (A) (A) (A) (A) (A) (A)
                 (A) (A) (A) (A) (A) (A) (A) (A) (A) (A) (A) (A)
                 (A) (A) (A) (A) (A) (A) (A) (A) (A) (A) (A) (A)
                 (A) (A) (A) (A) (A) (A) (A) (A) (A) (A) (A) (A)
                 (A) (A) (A) (A) (A) (A) (A) (A) (A) (A) (A) (A)
                 (A) (A) (A) (A) (A) (A) (A) (A) (A) (A) (A) (A)
                 (A) (A) (A) (A) (A) (A) (A) (A) (A) (A) (A) (A)
                 (A) (A) (A) (A) (A) (A) (A) (A) (A) (A) (A) (A)
                 (A) (A) (A) (A) (A) (A) (A) (A) (A) (A) (A) (A)
                 (A) (A) (A) (A) (A) (A) (A) (A) (A) (A) (A) (A)
                 (A) (A) (A) (A) (A) (A) (A) (A) (A) (A) (A) (A)
                 (A) (A) (A) (A) (A) (A) (A) (A) (A) (A) (A) (A)
                 (A) (A) (A) (A) (A) (A) (A) (A) (A) (A) (A) (A)
                 (A) (A) (A) (A) (A) (A) (A) (A) (A) (A) (A) (A)
                 (A) (A) (A) (A) (A) (A) (A) (A) (A) (A) (A) (A)
                 (A) (A) (A) (A) (A) (A) (A) (A) (A) (A) (A) (A)
                 (A) (A) (A) (A) (A) (A) (A) (A) (A) (A) (A) (A)
                 (A) (A) (A) (A) (A) (A) (A) (A) (A) (A) (A) (A)
                 (A) (A) (A) (A) (A) (A) (A) (A) (A) (A) (A) (A)
                 (A) (A) (A) (A) (A) (A) (A) (A) (A) (A) (A) (A)
                 (A) (A) (A) (A) (A) (A) (A) (A) (A) (A) (A) (A)
                 (A) (A) (A) (A) (A) (A) (A) (A) (A) (A) (A) (A)
                 (A) (A) (A) (A) (A) (A) (A) (A) (A) (A) (A) (A)
                 (A) (A) (A) (A) (A) (A) (A) (A) (A) (A) (A) (A)
                 (A) (A) (A) (A) (A) (A) (A) (A) (A) (A) (A) (A)
                 (A) (A) (A) (A) (A) (A) (A) (A) (A) (A) (A) (A)
                 (A) (A) (A) (A) (A) (A) (A) (A) (A) (A) (A) (A)
                 (A) (A) (A) (A) (A) (A) (A) (A) (A) (A) (A) (A)
                 (A) (A) (A) (A) (A) (A) (A) (A) (A) (A) (A) (A)
                 (A) (A) (A) (A) (A) (A) (A) (A) (A) (A) (A) (A)
                 (A) (A) (A) (A) (A) (A) (A) (A) (A) (A) (A) (A)
                 (A) (A) (A) (A) (A) (A) (A) (A) (A) (A) (A) (A)
                 (A) (A) (A) (A) (A) (A) (A) (A) (A) (A) (A) (A)
                 (A) (A) (A) (A) (A) (A) (A) (A) (A) (A) (A) (A)
                 (A) (A) (A) (A) (A) (A) (A) (A) (A) (A) (A) (A)
                 (A) (A) (A) (A) (A) (A) (A) (A) (A) (A) (A) (A)
                 (A) (A) (A) (A) (A) (A) (A) (A) (A) (A) (A) (A)
                 (A) (A) (A) (A) (A) (A) (A) (A) (A) (A) (A) (A)
                 (A) (A) (A) (A) (A) (A) (A) (A) (A) (A) (A) (A)
                 (A) (A) (A) (A) (A) (A) (A) (A) (A) (A) (A) (A)
                 (A) (A) (A) (A) (A) (A) (A) (A) (A) (A) (A) (A)
                 (A) (A) (A) (A) (A) (A) (A) (A) (A) (A) (A) (A)
                 (A) (A) (A) (A) (A) (A) (A) (A) (A) (A) (A) (A)
                 (A) (A) (A) (A) (A) (A) (A) (A) (A) (A) (A) (A)
                 (A) (A) (A) (A) (A) (A) (A) (A) (A) (A) (A) (A)
                 (A) (A) (A) (A) (A) (A) (A) (A) (A) (A) (A) (A)
                 (A) (A) (A) (A) (A) (A) (A) (A) (A) (A) (A) (A)
                 (A) (A) (A) (A) (A) (A) (A) (A) (A) (A) (A) (A)
                 (A) (A) (A) (A) (A) (A) (A) (A) (A) (A) (A) (A)
                 (A) (A) (A) (A) (A) (A) (A) (A) (A) (A) (A) (A)
                 (A) (A) (A) (A) (A) (A) (A) (A) (A) (A) (A) (A)
                 (A) (A) (A) (A) (A) (A) (A) (A) (A) (A) (A) (A)
                 (A) (A) (A) (A) (A) (A) (A) (A) (A) (A) (A) (A)
                 (A) (A) (A) (A) (A) (A) (A) (A) (A) (A) (A) (A)
                 (A) (A) (A) (A) (A) (A) (A) (A) (A) (A) (A) (A)
                 (A) (A) (A) (A) (A) (A) (A) (A) (A) (A) (A) (A)
                 (A) (A) (A) (A) (A) (A) (A) (A) (A) (A) (A) (A)
                 (A) (A) (A) (A) (A) (A) (A) (A) (A) (A) (A) (A)
                 (A) (A) (A) (A) (A) (A) (A) (A) (A) (A) (A) (A)
                 (A) (A) (A) (A) (A) (A) (A) (A) (A) (A) (A) (A)
                 (A) (A) (A) (A) (A) (A) (A) (A) (A) (A) (A) (A)
                 (A) (A) (A) (A) (A) (A) (A) (A) (A) (A) (A) (A)
                 (A) (A) (A) (A) (A) (A) (A) (A) (A) (A) (A) (A)
                 (A) (A) (A) (A) (A) (A) (A) (A) (A) (A) (A) (A)
                 (A) (A) (A) (A) (A) (A) (A) (A) (A) (A) (A) (A)
                 (A) (A) (A) (A) (A) (A) (A) (A) (A) (A) (A) (A)
                 (A) (A) (A) (A) (A) (A) (A) (A) (A) (A) (A) (A)
                 (A) (A) (A) (A) (A) (A) (A) (A) (A) (A) (A) (A)
                 (A) (A) (A) (A) (A) (A) (A) (A) (A) (A) (A) (A)
                 (A) (A) (A) (A) (A) (A) (A) (A) (A) (A) (A) (A)
                 (A) (A) (A) (A) (A) (A) (A) (A) (A) (A) (A) (A)
                 (A) (A) (A) (A) (A) (A) (A) (A) (A) (A) (A) (A)
                 (A) (A) (A) (A) (A) (A) (A) (A) (A) (A) (A) (A)
                 (A) (A) (A) (A) (A) (A) (A) (A) (A) (A) (A) (A)
                 (A) (A) (A) (A) (A) (A) (A) (A) (A) (A) (A) (A)
                 (A) (A) (A) (A) (A) (A) (A) (A) (A) (A) (A) (A)
                 (A) (A) (A) (A) (A) (A) (A) (A) (A) (A) (A) (A)
                 (A) (A) (A) (A) (A) (A) (A) (A) (A) (A) (A) (A)
                 (A) (A) (A) (A) (A) (A) (A) (A) (A) (A) (A) (A)
                 (A) (A) (A) (A) (A) (A) (A) (A) (A) (A) (A) (A)
                 (A) (A) (A) (A) (A) (A) (A) (A) (A) (A) (A) (A)
                 (A) (A) (A) (A) (A) (A) (A) (A) (A) (A) (A) (A)
                 (A) (A) (A) (A) (A) (A) (A) (A) (A) (A) (A) (A)
                 (A) (A) (A) (A) (A) (A) (A) (A) (A) (A) (A) (A)
                 (A) (A) (A) (A) (A) (A) (A) (A) (A) (A) (A) (A)
                 (A) (A) (A) (A) (A) (A) (A) (A) (A) (A) (A) (A)
                 (A) (A) (A) (A) (A) (A) (A) (A) (A) (A) (A) (A)
                 (A) (A) (A) (A) (A) (A) (A) (A) (A) (A) (A) (A)
                 (A) (A) (A) (A) (A) (A) (A) (A) (A) (A) (A) (A)
                 (A) (A) (A) (A) (A) (A) (A) (A) (A) (A) (A) (A)
                 (A) (A) (A) (A) (A) (A) (A) (A) (A) (A) (A) (A)
                 (A) (A) (A) (A) (A) (A) (A) (A) (A) (A) (A) (A)
                 (A) (A) (A) (A) (A) (A) (A) (A) (A) (A) (A) (A)
                 (A) (A) (A) (A) (A) (A) (A) (A) (A) (A) (A) (A)
                 (A) (A) (A) (A) (A) (A) (A) (A) (A) (A) (A) (A)
                 (A) (A) (A) (A) (A) (A) (A) (A) (A) (A) (A) (A)
                 (A) (A) (A) (A) (A) (A) (A) (A) (A) (A) (A) (A)
                 (A) (A) (A) (A) (A) (A) (A) (A) (A) (A) (A) (A)
                 (A) (A) (A) (A) (A) (A) (A) (A) (A) (A) (A) (A)
                 (A) (A) (A) (A) (A) (A) (A) (A) (A) (A) (A) (A)
                 (A) (A) (A) (A) (A) (A) (A) (A) (A) (A) (A) (A)
                 (A) (A) (A) (A) (A) (A) (A) (A) (A) (A) (A) (A)
                 (A) (A) (A) (A) (A) (A) (A) (A) (A) (A) (A) (A)
                 (A) (A) (A) (A) (A) (A) (A) (A) (A) (A) (A) (A)
                 (A) (A) (A) (A) (A) (A) (A) (A) (A) (A) (A) (A)
                 (A) (A) (A) (A) (A) (A) (A) (A) (A) (A) (A) (A)
                 (A) (A) (A) (A) (A) (A) (A) (A) (A) (A) (A) (A)
                 (A) (A) (A) (A) (A) (A) (A) (A) (A) (A) (A) (A)
                 (A) (A) (A) (A) (A) (A) (A) (A) (A) (A) (A) (A)
                 (A) (A) (A) (A) (A) (A) (A) (A) (A) (A) (A) (A)
                 (A) (A) (A) (A) (A) (A) (A) (A) (A) (A) (A) (A)
                 (A) (A) (A) (A) (A) (A) (A) (A) (A) (A) (A) (A)
                 (A) (A) (A) (A) (A) (A) (A) (A) (A) (A) (A) (A)
                 (A) (A) (A) (A) (A) (A) (A) (A) (A) (A) (A) (A)
                 (A) (A) (A) (A) (A) (A) (A) (A) (A) (A) (A) (A)
                 (A) (A) (A) (A) (A) (A) (A) (A) (A) (A) (A) (A)
                 (A) (A) (A) (A) (A) (A) (A) (A) (A) (A) (A) (A)
                 (A) (A) (A) (A) (A) (A) (A) (A) (A) (A) (A) (A)
                 (A) (A) (A) (A) (A) (A) (A) (A) (A) (A) (A) (A)
                 (A) (A) (A) (A) (A) (A) (A) (A) (A) (A) (A) (A)
                 (A) (A) (A) (A) (A) (A) (A) (A) (A) (A) (A) (A)
                 (A) (A) (A) (A) (A) (A) (A) (A) (A) (A) (A) (A)
                 (A) (A) (A) (A) (A) (A) (A) (A) (A) (A) (A) (A)
                 (A) (A) (A) (A) (A) (A) (A) (A) (A) (A) (A) (A)
                 (A) (A) (A) (A) (A) (A) (A) (A) (A) (A) (A) (A)
                 (A)
 Beta  Orbitals:
       Occupied  (A) (A) (A) (A) (A) (A) (A) (A) (A) (A) (A) (A)
                 (A) (A) (A) (A) (A) (A) (A) (A) (A) (A) (A) (A)
                 (A) (A) (A) (A) (A) (A) (A) (A) (A) (A) (A) (A)
                 (A) (A) (A) (A) (A) (A) (A) (A) (A) (A) (A) (A)
                 (A) (A) (A) (A) (A) (A) (A) (A) (A) (A) (A) (A)
                 (A) (A) (A) (A) (A) (A) (A) (A) (A) (A) (A) (A)
                 (A) (A) (A) (A) (A) (A) (A) (A) (A) (A) (A) (A)
                 (A) (A) (A) (A) (A) (A) (A) (A) (A) (A) (A) (A)
                 (A) (A) (A) (A) (A) (A) (A) (A) (A) (A) (A) (A)
                 (A) (A) (A) (A) (A) (A) (A) (A) (A) (A) (A) (A)
                 (A) (A) (A) (A) (A) (A) (A) (A) (A) (A) (A) (A)
                 (A) (A) (A) (A) (A) (A) (A) (A) (A) (A) (A) (A)
                 (A) (A) (A) (A) (A) (A) (A) (A) (A) (A) (A) (A)
                 (A) (A) (A) (A) (A) (A) (A) (A) (A) (A) (A) (A)
                 (A) (A) (A) (A) (A) (A) (A) (A) (A) (A) (A) (A)
                 (A) (A) (A) (A) (A) (A) (A) (A) (A) (A) (A) (A)
                 (A) (A) (A) (A) (A)
       Virtual   (A) (A) (A) (A) (A) (A) (A) (A) (A) (A) (A) (A)
                 (A) (A) (A) (A) (A) (A) (A) (A) (A) (A) (A) (A)
                 (A) (A) (A) (A) (A) (A) (A) (A) (A) (A) (A) (A)
                 (A) (A) (A) (A) (A) (A) (A) (A) (A) (A) (A) (A)
                 (A) (A) (A) (A) (A) (A) (A) (A) (A) (A) (A) (A)
                 (A) (A) (A) (A) (A) (A) (A) (A) (A) (A) (A) (A)
                 (A) (A) (A) (A) (A) (A) (A) (A) (A) (A) (A) (A)
                 (A) (A) (A) (A) (A) (A) (A) (A) (A) (A) (A) (A)
                 (A) (A) (A) (A) (A) (A) (A) (A) (A) (A) (A) (A)
                 (A) (A) (A) (A) (A) (A) (A) (A) (A) (A) (A) (A)
                 (A) (A) (A) (A) (A) (A) (A) (A) (A) (A) (A) (A)
                 (A) (A) (A) (A) (A) (A) (A) (A) (A) (A) (A) (A)
                 (A) (A) (A) (A) (A) (A) (A) (A) (A) (A) (A) (A)
                 (A) (A) (A) (A) (A) (A) (A) (A) (A) (A) (A) (A)
                 (A) (A) (A) (A) (A) (A) (A) (A) (A) (A) (A) (A)
                 (A) (A) (A) (A) (A) (A) (A) (A) (A) (A) (A) (A)
                 (A) (A) (A) (A) (A) (A) (A) (A) (A) (A) (A) (A)
                 (A) (A) (A) (A) (A) (A) (A) (A) (A) (A) (A) (A)
                 (A) (A) (A) (A) (A) (A) (A) (A) (A) (A) (A) (A)
                 (A) (A) (A) (A) (A) (A) (A) (A) (A) (A) (A) (A)
                 (A) (A) (A) (A) (A) (A) (A) (A) (A) (A) (A) (A)
                 (A) (A) (A) (A) (A) (A) (A) (A) (A) (A) (A) (A)
                 (A) (A) (A) (A) (A) (A) (A) (A) (A) (A) (A) (A)
                 (A) (A) (A) (A) (A) (A) (A) (A) (A) (A) (A) (A)
                 (A) (A) (A) (A) (A) (A) (A) (A) (A) (A) (A) (A)
                 (A) (A) (A) (A) (A) (A) (A) (A) (A) (A) (A) (A)
                 (A) (A) (A) (A) (A) (A) (A) (A) (A) (A) (A) (A)
                 (A) (A) (A) (A) (A) (A) (A) (A) (A) (A) (A) (A)
                 (A) (A) (A) (A) (A) (A) (A) (A) (A) (A) (A) (A)
                 (A) (A) (A) (A) (A) (A) (A) (A) (A) (A) (A) (A)
                 (A) (A) (A) (A) (A) (A) (A) (A) (A) (A) (A) (A)
                 (A) (A) (A) (A) (A) (A) (A) (A) (A) (A) (A) (A)
                 (A) (A) (A) (A) (A) (A) (A) (A) (A) (A) (A) (A)
                 (A) (A) (A) (A) (A) (A) (A) (A) (A) (A) (A) (A)
                 (A) (A) (A) (A) (A) (A) (A) (A) (A) (A) (A) (A)
                 (A) (A) (A) (A) (A) (A) (A) (A) (A) (A) (A) (A)
                 (A) (A) (A) (A) (A) (A) (A) (A) (A) (A) (A) (A)
                 (A) (A) (A) (A) (A) (A) (A) (A) (A) (A) (A) (A)
                 (A) (A) (A) (A) (A) (A) (A) (A) (A) (A) (A) (A)
                 (A) (A) (A) (A) (A) (A) (A) (A) (A) (A) (A) (A)
                 (A) (A) (A) (A) (A) (A) (A) (A) (A) (A) (A) (A)
                 (A) (A) (A) (A) (A) (A) (A) (A) (A) (A) (A) (A)
                 (A) (A) (A) (A) (A) (A) (A) (A) (A) (A) (A) (A)
                 (A) (A) (A) (A) (A) (A) (A) (A) (A) (A) (A) (A)
                 (A) (A) (A) (A) (A) (A) (A) (A) (A) (A) (A) (A)
                 (A) (A) (A) (A) (A) (A) (A) (A) (A) (A) (A) (A)
                 (A) (A) (A) (A) (A) (A) (A) (A) (A) (A) (A) (A)
                 (A) (A) (A) (A) (A) (A) (A) (A) (A) (A) (A) (A)
                 (A) (A) (A) (A) (A) (A) (A) (A) (A) (A) (A) (A)
                 (A) (A) (A) (A) (A) (A) (A) (A) (A) (A) (A) (A)
                 (A) (A) (A) (A) (A) (A) (A) (A) (A) (A) (A) (A)
                 (A) (A) (A) (A) (A) (A) (A) (A) (A) (A) (A) (A)
                 (A) (A) (A) (A) (A) (A) (A) (A) (A) (A) (A) (A)
                 (A) (A) (A) (A) (A) (A) (A) (A) (A) (A) (A) (A)
                 (A) (A) (A) (A) (A) (A) (A) (A) (A) (A) (A) (A)
                 (A) (A) (A) (A) (A) (A) (A) (A) (A) (A) (A) (A)
                 (A) (A) (A) (A) (A) (A) (A) (A) (A) (A) (A) (A)
                 (A) (A) (A) (A) (A) (A) (A) (A) (A) (A) (A) (A)
                 (A) (A) (A) (A) (A) (A) (A) (A) (A) (A) (A) (A)
                 (A) (A) (A) (A) (A) (A) (A) (A) (A) (A) (A) (A)
                 (A) (A) (A) (A) (A) (A) (A) (A) (A) (A) (A) (A)
                 (A) (A) (A) (A) (A) (A) (A) (A) (A) (A) (A) (A)
                 (A) (A) (A) (A) (A) (A) (A) (A) (A) (A) (A) (A)
                 (A) (A) (A) (A) (A) (A) (A) (A) (A) (A) (A) (A)
                 (A) (A) (A) (A) (A) (A) (A) (A) (A) (A) (A) (A)
                 (A) (A) (A) (A) (A) (A) (A) (A) (A) (A) (A) (A)
                 (A) (A) (A) (A) (A) (A) (A) (A) (A) (A) (A) (A)
                 (A) (A) (A) (A) (A) (A) (A) (A) (A) (A) (A) (A)
                 (A) (A) (A) (A) (A) (A) (A) (A) (A) (A) (A) (A)
                 (A) (A) (A) (A) (A) (A) (A) (A) (A) (A) (A) (A)
                 (A) (A) (A) (A) (A) (A) (A) (A) (A) (A) (A) (A)
                 (A) (A) (A) (A) (A) (A) (A) (A) (A) (A) (A) (A)
                 (A) (A) (A) (A) (A) (A) (A) (A) (A) (A) (A) (A)
                 (A) (A) (A) (A) (A) (A) (A) (A) (A) (A) (A) (A)
                 (A) (A) (A) (A) (A) (A) (A) (A) (A) (A) (A) (A)
                 (A) (A) (A) (A) (A) (A) (A) (A) (A) (A) (A) (A)
                 (A) (A) (A) (A) (A) (A) (A) (A) (A) (A) (A) (A)
                 (A) (A) (A) (A) (A) (A) (A) (A) (A) (A) (A) (A)
                 (A) (A) (A) (A) (A) (A) (A) (A) (A) (A) (A) (A)
                 (A) (A) (A) (A) (A) (A) (A) (A) (A) (A) (A) (A)
                 (A) (A) (A) (A) (A) (A) (A) (A) (A) (A) (A) (A)
                 (A) (A) (A) (A) (A) (A) (A) (A) (A) (A) (A) (A)
                 (A) (A) (A) (A) (A) (A) (A) (A) (A) (A) (A) (A)
                 (A) (A) (A) (A) (A) (A) (A) (A) (A) (A) (A) (A)
                 (A) (A) (A) (A) (A) (A) (A) (A) (A) (A) (A) (A)
                 (A) (A) (A) (A) (A) (A) (A) (A) (A) (A) (A) (A)
                 (A) (A) (A) (A) (A) (A) (A) (A) (A) (A) (A) (A)
                 (A) (A) (A) (A) (A) (A) (A) (A) (A) (A) (A) (A)
                 (A) (A) (A) (A) (A) (A) (A) (A) (A) (A) (A) (A)
                 (A) (A) (A) (A) (A) (A) (A) (A) (A) (A) (A) (A)
                 (A) (A) (A) (A) (A) (A) (A) (A) (A) (A) (A) (A)
                 (A) (A) (A) (A) (A) (A) (A) (A) (A) (A) (A) (A)
                 (A) (A) (A) (A) (A) (A) (A) (A) (A) (A) (A) (A)
                 (A) (A) (A) (A) (A) (A) (A) (A) (A) (A) (A) (A)
                 (A) (A) (A) (A) (A) (A) (A) (A) (A) (A) (A) (A)
                 (A) (A) (A) (A) (A) (A) (A) (A) (A) (A) (A) (A)
                 (A) (A) (A) (A) (A) (A) (A) (A) (A) (A) (A) (A)
                 (A) (A) (A) (A) (A) (A) (A) (A) (A) (A) (A) (A)
                 (A) (A) (A) (A) (A) (A) (A) (A) (A) (A) (A) (A)
                 (A) (A) (A) (A) (A) (A) (A) (A) (A) (A) (A) (A)
                 (A) (A) (A) (A) (A) (A) (A) (A) (A) (A) (A) (A)
                 (A) (A) (A) (A) (A) (A) (A) (A) (A) (A) (A) (A)
                 (A) (A) (A) (A) (A) (A) (A) (A) (A) (A) (A) (A)
                 (A) (A) (A) (A) (A) (A) (A) (A) (A) (A) (A) (A)
                 (A) (A) (A) (A) (A) (A) (A) (A) (A) (A) (A) (A)
                 (A) (A) (A) (A) (A) (A) (A) (A) (A) (A) (A) (A)
                 (A) (A) (A) (A) (A) (A) (A) (A) (A) (A) (A) (A)
                 (A) (A) (A) (A) (A) (A) (A) (A) (A) (A) (A) (A)
                 (A) (A) (A) (A) (A) (A) (A) (A) (A) (A) (A) (A)
                 (A) (A) (A) (A) (A) (A) (A) (A) (A) (A) (A) (A)
                 (A) (A) (A) (A) (A) (A) (A) (A) (A) (A) (A) (A)
                 (A) (A) (A) (A) (A) (A) (A) (A) (A) (A) (A) (A)
                 (A) (A) (A) (A) (A) (A) (A) (A) (A) (A) (A) (A)
                 (A) (A) (A) (A) (A) (A) (A) (A) (A) (A) (A) (A)
                 (A) (A) (A) (A) (A) (A) (A) (A) (A) (A) (A) (A)
                 (A) (A) (A) (A) (A) (A) (A) (A) (A) (A) (A) (A)
                 (A) (A) (A) (A) (A) (A) (A) (A) (A) (A) (A) (A)
                 (A) (A) (A) (A) (A) (A) (A) (A) (A) (A) (A) (A)
                 (A) (A) (A) (A) (A) (A) (A) (A) (A) (A) (A) (A)
                 (A) (A) (A) (A) (A) (A) (A) (A) (A) (A) (A) (A)
                 (A) (A) (A) (A) (A) (A) (A) (A) (A) (A) (A) (A)
                 (A) (A) (A) (A) (A) (A) (A) (A) (A) (A) (A) (A)
                 (A) (A) (A) (A) (A) (A) (A) (A) (A) (A) (A) (A)
                 (A) (A) (A) (A) (A) (A) (A) (A) (A) (A) (A) (A)
                 (A) (A) (A) (A) (A) (A) (A) (A) (A) (A) (A) (A)
                 (A) (A) (A) (A) (A) (A) (A) (A) (A) (A) (A) (A)
                 (A) (A) (A) (A) (A) (A) (A) (A) (A) (A) (A) (A)
                 (A) (A) (A) (A) (A) (A) (A) (A) (A) (A) (A) (A)
                 (A) (A) (A) (A) (A) (A) (A) (A) (A) (A) (A) (A)
                 (A) (A) (A) (A) (A) (A) (A) (A) (A) (A) (A) (A)
                 (A) (A) (A) (A) (A) (A) (A) (A) (A) (A) (A) (A)
                 (A) (A) (A) (A) (A) (A) (A) (A) (A) (A) (A) (A)
                 (A) (A) (A) (A) (A) (A) (A) (A) (A) (A) (A) (A)
                 (A) (A) (A) (A) (A) (A) (A) (A) (A) (A) (A) (A)
                 (A) (A) (A) (A) (A) (A) (A) (A) (A) (A) (A) (A)
                 (A) (A) (A) (A) (A) (A) (A) (A) (A) (A) (A) (A)
                 (A) (A) (A) (A) (A) (A) (A) (A) (A) (A) (A) (A)
                 (A) (A) (A) (A)
 The electronic state is 4-A.
 Alpha  occ. eigenvalues -- -101.10675 -19.01682 -19.01363 -19.00456 -14.18734
 Alpha  occ. eigenvalues --  -14.18462 -14.17621 -14.17491 -10.14760 -10.14629
 Alpha  occ. eigenvalues --  -10.12762 -10.11838 -10.11603 -10.11516 -10.10807
 Alpha  occ. eigenvalues --  -10.09779 -10.09757 -10.09718 -10.09457 -10.08091
 Alpha  occ. eigenvalues --  -10.07690 -10.07277 -10.07228 -10.07037 -10.06801
 Alpha  occ. eigenvalues --  -10.06753 -10.06591 -10.06455 -10.06448 -10.06417
 Alpha  occ. eigenvalues --  -10.06134 -10.05896 -10.05852 -10.05757 -10.05599
 Alpha  occ. eigenvalues --  -10.05401 -10.05387 -10.05288 -10.05248 -10.05240
 Alpha  occ. eigenvalues --  -10.05160 -10.04698 -10.04638 -10.04592 -10.04586
 Alpha  occ. eigenvalues --  -10.04155 -10.03987 -10.03807 -10.03734  -9.33631
 Alpha  occ. eigenvalues --   -7.04000  -7.03874  -7.03688  -4.03417  -4.00932
 Alpha  occ. eigenvalues --   -2.64139  -2.61461  -2.61157  -2.60254  -2.58907
 Alpha  occ. eigenvalues --   -2.57868  -1.06704  -1.06412  -1.04094  -0.94024
 Alpha  occ. eigenvalues --   -0.89553  -0.87877  -0.86782  -0.82717  -0.81430
 Alpha  occ. eigenvalues --   -0.80123  -0.79065  -0.78912  -0.78416  -0.75374
 Alpha  occ. eigenvalues --   -0.74495  -0.74374  -0.72330  -0.72229  -0.71442
 Alpha  occ. eigenvalues --   -0.71269  -0.70228  -0.69879  -0.69753  -0.65847
 Alpha  occ. eigenvalues --   -0.65785  -0.65215  -0.64842  -0.64655  -0.64478
 Alpha  occ. eigenvalues --   -0.64118  -0.62371  -0.61586  -0.60607  -0.60398
 Alpha  occ. eigenvalues --   -0.58132  -0.57537  -0.56316  -0.56023  -0.55520
 Alpha  occ. eigenvalues --   -0.54906  -0.54727  -0.51756  -0.50883  -0.50398
 Alpha  occ. eigenvalues --   -0.49844  -0.49631  -0.49073  -0.48740  -0.47980
 Alpha  occ. eigenvalues --   -0.46833  -0.46632  -0.46199  -0.45586  -0.45128
 Alpha  occ. eigenvalues --   -0.45005  -0.44811  -0.43033  -0.42928  -0.42576
 Alpha  occ. eigenvalues --   -0.42361  -0.42058  -0.41710  -0.41437  -0.40870
 Alpha  occ. eigenvalues --   -0.40582  -0.40456  -0.40283  -0.40169  -0.40093
 Alpha  occ. eigenvalues --   -0.39765  -0.39648  -0.39581  -0.38683  -0.38510
 Alpha  occ. eigenvalues --   -0.38159  -0.38092  -0.37838  -0.37508  -0.37309
 Alpha  occ. eigenvalues --   -0.36594  -0.36421  -0.36059  -0.35924  -0.35728
 Alpha  occ. eigenvalues --   -0.35251  -0.34906  -0.34782  -0.34599  -0.34407
 Alpha  occ. eigenvalues --   -0.34168  -0.33744  -0.33579  -0.33362  -0.33226
 Alpha  occ. eigenvalues --   -0.33094  -0.33038  -0.32812  -0.32552  -0.32520
 Alpha  occ. eigenvalues --   -0.32097  -0.31705  -0.31385  -0.30980  -0.30692
 Alpha  occ. eigenvalues --   -0.30529  -0.30505  -0.30287  -0.30199  -0.29957
 Alpha  occ. eigenvalues --   -0.29827  -0.29620  -0.29268  -0.29173  -0.29133
 Alpha  occ. eigenvalues --   -0.28964  -0.28801  -0.28098  -0.26622  -0.25755
 Alpha  occ. eigenvalues --   -0.25314  -0.25251  -0.25145  -0.23745  -0.23459
 Alpha  occ. eigenvalues --   -0.23255  -0.22816  -0.22758  -0.22321  -0.21751
 Alpha  occ. eigenvalues --   -0.21177  -0.20951  -0.20911  -0.20675  -0.19695
 Alpha  occ. eigenvalues --   -0.19231  -0.18301  -0.17620  -0.17158  -0.12880
 Alpha virt. eigenvalues --   -0.08664  -0.06197  -0.04268  -0.03665  -0.03639
 Alpha virt. eigenvalues --   -0.03150  -0.03110  -0.02741  -0.00118   0.00587
 Alpha virt. eigenvalues --    0.01580   0.02114   0.02438   0.02719   0.03095
 Alpha virt. eigenvalues --    0.03518   0.03648   0.04581   0.05008   0.05516
 Alpha virt. eigenvalues --    0.05928   0.06070   0.06283   0.06413   0.07047
 Alpha virt. eigenvalues --    0.07168   0.07453   0.07695   0.07779   0.07977
 Alpha virt. eigenvalues --    0.08135   0.08321   0.08523   0.08780   0.09083
 Alpha virt. eigenvalues --    0.09268   0.09400   0.09534   0.09666   0.09805
 Alpha virt. eigenvalues --    0.10107   0.10438   0.10613   0.10791   0.10993
 Alpha virt. eigenvalues --    0.11095   0.11327   0.11557   0.11669   0.11751
 Alpha virt. eigenvalues --    0.11767   0.12016   0.12405   0.12602   0.12688
 Alpha virt. eigenvalues --    0.12853   0.13119   0.13311   0.13461   0.13673
 Alpha virt. eigenvalues --    0.13878   0.14098   0.14317   0.14339   0.14852
 Alpha virt. eigenvalues --    0.15051   0.15096   0.15404   0.15602   0.15719
 Alpha virt. eigenvalues --    0.15813   0.16064   0.16204   0.16469   0.16892
 Alpha virt. eigenvalues --    0.17002   0.17172   0.17246   0.17546   0.17772
 Alpha virt. eigenvalues --    0.17856   0.18090   0.18296   0.18639   0.19020
 Alpha virt. eigenvalues --    0.19204   0.19380   0.19595   0.19735   0.20029
 Alpha virt. eigenvalues --    0.20334   0.20497   0.20660   0.21196   0.21334
 Alpha virt. eigenvalues --    0.21426   0.21514   0.21851   0.21987   0.22206
 Alpha virt. eigenvalues --    0.22380   0.22532   0.22654   0.22964   0.23329
 Alpha virt. eigenvalues --    0.23366   0.23640   0.23758   0.23930   0.24000
 Alpha virt. eigenvalues --    0.24244   0.24439   0.24564   0.24741   0.24843
 Alpha virt. eigenvalues --    0.25265   0.25359   0.25705   0.25938   0.26198
 Alpha virt. eigenvalues --    0.26362   0.26410   0.26417   0.26852   0.27033
 Alpha virt. eigenvalues --    0.27227   0.27426   0.27591   0.27956   0.28117
 Alpha virt. eigenvalues --    0.28466   0.28493   0.28777   0.29047   0.29266
 Alpha virt. eigenvalues --    0.29327   0.29577   0.29649   0.29765   0.29906
 Alpha virt. eigenvalues --    0.30142   0.30371   0.30642   0.30992   0.31085
 Alpha virt. eigenvalues --    0.31305   0.31648   0.31774   0.32024   0.32336
 Alpha virt. eigenvalues --    0.32507   0.32845   0.32989   0.33155   0.33279
 Alpha virt. eigenvalues --    0.33560   0.33810   0.33904   0.34078   0.34348
 Alpha virt. eigenvalues --    0.34419   0.34577   0.34816   0.34945   0.35108
 Alpha virt. eigenvalues --    0.35192   0.35537   0.35779   0.35908   0.35956
 Alpha virt. eigenvalues --    0.36235   0.36352   0.36509   0.36590   0.36612
 Alpha virt. eigenvalues --    0.36661   0.37101   0.37268   0.37316   0.37523
 Alpha virt. eigenvalues --    0.37559   0.37951   0.38189   0.38332   0.38406
 Alpha virt. eigenvalues --    0.38779   0.38849   0.38932   0.39052   0.39292
 Alpha virt. eigenvalues --    0.39571   0.39670   0.39682   0.39838   0.39947
 Alpha virt. eigenvalues --    0.40126   0.40383   0.40634   0.40736   0.40830
 Alpha virt. eigenvalues --    0.41018   0.41415   0.41527   0.41635   0.41827
 Alpha virt. eigenvalues --    0.42003   0.42215   0.42530   0.42578   0.42754
 Alpha virt. eigenvalues --    0.42904   0.42945   0.43117   0.43357   0.43426
 Alpha virt. eigenvalues --    0.43644   0.43917   0.44022   0.44146   0.44290
 Alpha virt. eigenvalues --    0.44570   0.44623   0.44649   0.44894   0.44971
 Alpha virt. eigenvalues --    0.45100   0.45243   0.45300   0.45497   0.45577
 Alpha virt. eigenvalues --    0.45915   0.46086   0.46189   0.46355   0.46469
 Alpha virt. eigenvalues --    0.46736   0.46991   0.47229   0.47362   0.47559
 Alpha virt. eigenvalues --    0.47754   0.47952   0.47973   0.48091   0.48393
 Alpha virt. eigenvalues --    0.48550   0.48677   0.49123   0.49191   0.49386
 Alpha virt. eigenvalues --    0.49603   0.49953   0.50134   0.50227   0.50274
 Alpha virt. eigenvalues --    0.50679   0.50827   0.51125   0.51371   0.51671
 Alpha virt. eigenvalues --    0.51884   0.52225   0.52400   0.52813   0.53083
 Alpha virt. eigenvalues --    0.53193   0.53277   0.53575   0.53789   0.54245
 Alpha virt. eigenvalues --    0.54299   0.54972   0.55177   0.55417   0.55616
 Alpha virt. eigenvalues --    0.56133   0.56142   0.56560   0.56900   0.57222
 Alpha virt. eigenvalues --    0.57424   0.57791   0.58100   0.58322   0.58619
 Alpha virt. eigenvalues --    0.59092   0.59205   0.59414   0.60116   0.60542
 Alpha virt. eigenvalues --    0.61083   0.61111   0.61292   0.61861   0.62045
 Alpha virt. eigenvalues --    0.62189   0.62270   0.62645   0.63190   0.63310
 Alpha virt. eigenvalues --    0.63509   0.63767   0.64026   0.64190   0.64310
 Alpha virt. eigenvalues --    0.64527   0.64771   0.64987   0.65359   0.65810
 Alpha virt. eigenvalues --    0.66174   0.66474   0.66656   0.66873   0.67078
 Alpha virt. eigenvalues --    0.67284   0.67342   0.67599   0.68051   0.68212
 Alpha virt. eigenvalues --    0.68333   0.68773   0.68908   0.69222   0.69329
 Alpha virt. eigenvalues --    0.69776   0.69970   0.70420   0.70800   0.70856
 Alpha virt. eigenvalues --    0.71054   0.71403   0.71677   0.71783   0.72113
 Alpha virt. eigenvalues --    0.72291   0.72781   0.72949   0.73117   0.73235
 Alpha virt. eigenvalues --    0.73555   0.73627   0.74009   0.74359   0.74652
 Alpha virt. eigenvalues --    0.75015   0.75230   0.75550   0.75710   0.75894
 Alpha virt. eigenvalues --    0.76418   0.76532   0.76732   0.76897   0.77208
 Alpha virt. eigenvalues --    0.77393   0.77607   0.78092   0.78313   0.78492
 Alpha virt. eigenvalues --    0.78675   0.79155   0.79574   0.79809   0.80019
 Alpha virt. eigenvalues --    0.80056   0.80473   0.80642   0.80995   0.81330
 Alpha virt. eigenvalues --    0.81844   0.81889   0.82195   0.82628   0.82743
 Alpha virt. eigenvalues --    0.83033   0.83126   0.83660   0.83835   0.83980
 Alpha virt. eigenvalues --    0.84497   0.84715   0.84852   0.85385   0.85882
 Alpha virt. eigenvalues --    0.85982   0.86299   0.86596   0.86793   0.87193
 Alpha virt. eigenvalues --    0.87632   0.87789   0.87892   0.88429   0.88827
 Alpha virt. eigenvalues --    0.89191   0.89425   0.89639   0.89805   0.90336
 Alpha virt. eigenvalues --    0.90612   0.90854   0.90971   0.91307   0.91376
 Alpha virt. eigenvalues --    0.91783   0.92229   0.92490   0.93127   0.93420
 Alpha virt. eigenvalues --    0.93650   0.93962   0.94239   0.94385   0.94875
 Alpha virt. eigenvalues --    0.95386   0.96111   0.96605   0.96738   0.97045
 Alpha virt. eigenvalues --    0.97238   0.97637   0.98117   0.98409   0.98872
 Alpha virt. eigenvalues --    0.99214   0.99692   0.99770   1.00616   1.00777
 Alpha virt. eigenvalues --    1.01137   1.01420   1.01838   1.02409   1.02880
 Alpha virt. eigenvalues --    1.02972   1.03501   1.03568   1.04271   1.04289
 Alpha virt. eigenvalues --    1.04598   1.04995   1.05276   1.05486   1.05571
 Alpha virt. eigenvalues --    1.05887   1.06463   1.06615   1.07065   1.07265
 Alpha virt. eigenvalues --    1.07541   1.07863   1.07888   1.08041   1.08438
 Alpha virt. eigenvalues --    1.08954   1.09090   1.09550   1.09962   1.10669
 Alpha virt. eigenvalues --    1.10796   1.11102   1.11524   1.12081   1.12130
 Alpha virt. eigenvalues --    1.12565   1.12776   1.13087   1.13429   1.13481
 Alpha virt. eigenvalues --    1.13860   1.14329   1.14682   1.14862   1.15087
 Alpha virt. eigenvalues --    1.15787   1.16129   1.16263   1.16582   1.16861
 Alpha virt. eigenvalues --    1.17341   1.17655   1.17982   1.18447   1.18718
 Alpha virt. eigenvalues --    1.18876   1.19176   1.19816   1.19950   1.20040
 Alpha virt. eigenvalues --    1.20467   1.20817   1.20944   1.21607   1.21930
 Alpha virt. eigenvalues --    1.22003   1.22745   1.22883   1.23276   1.23444
 Alpha virt. eigenvalues --    1.23858   1.24183   1.24363   1.24644   1.24860
 Alpha virt. eigenvalues --    1.25068   1.25504   1.25929   1.26084   1.26918
 Alpha virt. eigenvalues --    1.27006   1.27334   1.27543   1.28041   1.28367
 Alpha virt. eigenvalues --    1.28393   1.28515   1.28840   1.29410   1.29690
 Alpha virt. eigenvalues --    1.30193   1.30305   1.30750   1.31008   1.31902
 Alpha virt. eigenvalues --    1.31993   1.32418   1.32747   1.33071   1.33365
 Alpha virt. eigenvalues --    1.34251   1.34379   1.34611   1.34843   1.35050
 Alpha virt. eigenvalues --    1.35124   1.36039   1.36280   1.36426   1.37193
 Alpha virt. eigenvalues --    1.37641   1.37941   1.38043   1.38458   1.39073
 Alpha virt. eigenvalues --    1.39521   1.39538   1.39973   1.40917   1.41099
 Alpha virt. eigenvalues --    1.41605   1.41699   1.42170   1.42689   1.42795
 Alpha virt. eigenvalues --    1.43299   1.43647   1.44431   1.45240   1.45496
 Alpha virt. eigenvalues --    1.45861   1.45984   1.46204   1.46557   1.46889
 Alpha virt. eigenvalues --    1.47264   1.47858   1.48089   1.48338   1.48529
 Alpha virt. eigenvalues --    1.48957   1.49129   1.49643   1.49737   1.49832
 Alpha virt. eigenvalues --    1.50296   1.50850   1.51033   1.51623   1.51846
 Alpha virt. eigenvalues --    1.51951   1.52347   1.52936   1.53138   1.53559
 Alpha virt. eigenvalues --    1.53678   1.53801   1.54314   1.54504   1.54756
 Alpha virt. eigenvalues --    1.55207   1.55582   1.55746   1.56189   1.56661
 Alpha virt. eigenvalues --    1.56714   1.56995   1.57357   1.57512   1.57816
 Alpha virt. eigenvalues --    1.57887   1.58157   1.58454   1.58809   1.59009
 Alpha virt. eigenvalues --    1.59062   1.59633   1.59796   1.60058   1.60505
 Alpha virt. eigenvalues --    1.60826   1.60910   1.61032   1.61283   1.61455
 Alpha virt. eigenvalues --    1.61671   1.62039   1.62235   1.62258   1.62655
 Alpha virt. eigenvalues --    1.63042   1.63275   1.63461   1.63657   1.64222
 Alpha virt. eigenvalues --    1.64541   1.64615   1.64971   1.65370   1.65794
 Alpha virt. eigenvalues --    1.66128   1.66246   1.66935   1.67036   1.67748
 Alpha virt. eigenvalues --    1.67815   1.68117   1.68292   1.68631   1.68916
 Alpha virt. eigenvalues --    1.69122   1.69636   1.69888   1.70252   1.70469
 Alpha virt. eigenvalues --    1.70901   1.71347   1.71574   1.72141   1.72518
 Alpha virt. eigenvalues --    1.72838   1.72976   1.73326   1.73586   1.73988
 Alpha virt. eigenvalues --    1.74599   1.74854   1.75091   1.75707   1.76331
 Alpha virt. eigenvalues --    1.76889   1.77292   1.77502   1.77833   1.78097
 Alpha virt. eigenvalues --    1.78278   1.78492   1.79277   1.79637   1.79826
 Alpha virt. eigenvalues --    1.80239   1.80784   1.81210   1.81992   1.82307
 Alpha virt. eigenvalues --    1.82709   1.82856   1.83574   1.83990   1.84348
 Alpha virt. eigenvalues --    1.84751   1.85247   1.85572   1.86059   1.86423
 Alpha virt. eigenvalues --    1.86876   1.87289   1.87768   1.87998   1.88258
 Alpha virt. eigenvalues --    1.88759   1.89009   1.89347   1.89726   1.89845
 Alpha virt. eigenvalues --    1.90258   1.90616   1.91012   1.91190   1.91561
 Alpha virt. eigenvalues --    1.91782   1.92105   1.92211   1.92516   1.93221
 Alpha virt. eigenvalues --    1.93366   1.93804   1.93914   1.94450   1.94681
 Alpha virt. eigenvalues --    1.95236   1.95674   1.96260   1.96779   1.97241
 Alpha virt. eigenvalues --    1.97369   1.97500   1.97917   1.98241   1.98622
 Alpha virt. eigenvalues --    1.98789   1.99190   1.99638   2.00142   2.00473
 Alpha virt. eigenvalues --    2.00883   2.01153   2.01651   2.01908   2.02467
 Alpha virt. eigenvalues --    2.02663   2.03180   2.03346   2.03503   2.04232
 Alpha virt. eigenvalues --    2.04286   2.04799   2.05003   2.05752   2.06084
 Alpha virt. eigenvalues --    2.06527   2.07020   2.07243   2.07497   2.07950
 Alpha virt. eigenvalues --    2.08332   2.08862   2.08962   2.09318   2.09550
 Alpha virt. eigenvalues --    2.10091   2.10425   2.10665   2.11359   2.11481
 Alpha virt. eigenvalues --    2.11873   2.12103   2.12383   2.12650   2.12892
 Alpha virt. eigenvalues --    2.13325   2.13532   2.13843   2.14091   2.14452
 Alpha virt. eigenvalues --    2.14728   2.14808   2.15294   2.16138   2.16308
 Alpha virt. eigenvalues --    2.16706   2.17243   2.17427   2.17631   2.18184
 Alpha virt. eigenvalues --    2.18544   2.18916   2.19205   2.19728   2.20038
 Alpha virt. eigenvalues --    2.20338   2.20538   2.21332   2.21454   2.21667
 Alpha virt. eigenvalues --    2.21878   2.22541   2.23000   2.23229   2.24150
 Alpha virt. eigenvalues --    2.24198   2.24273   2.24900   2.25080   2.25271
 Alpha virt. eigenvalues --    2.25611   2.25879   2.25921   2.26166   2.27209
 Alpha virt. eigenvalues --    2.27251   2.27319   2.27751   2.28211   2.28444
 Alpha virt. eigenvalues --    2.28909   2.29599   2.30016   2.30200   2.30351
 Alpha virt. eigenvalues --    2.30679   2.31266   2.31848   2.32325   2.32527
 Alpha virt. eigenvalues --    2.32807   2.32935   2.33383   2.33770   2.34296
 Alpha virt. eigenvalues --    2.34521   2.34697   2.34858   2.34989   2.35460
 Alpha virt. eigenvalues --    2.36179   2.36329   2.36587   2.37410   2.37661
 Alpha virt. eigenvalues --    2.37677   2.38101   2.38380   2.38538   2.38940
 Alpha virt. eigenvalues --    2.39321   2.39996   2.40188   2.40527   2.40821
 Alpha virt. eigenvalues --    2.41152   2.41685   2.42214   2.42525   2.42913
 Alpha virt. eigenvalues --    2.43661   2.44051   2.44400   2.44547   2.44952
 Alpha virt. eigenvalues --    2.45247   2.45740   2.45903   2.46304   2.46650
 Alpha virt. eigenvalues --    2.47021   2.47286   2.48427   2.49062   2.49154
 Alpha virt. eigenvalues --    2.49725   2.49909   2.49995   2.50768   2.51051
 Alpha virt. eigenvalues --    2.51506   2.51856   2.52409   2.52761   2.53052
 Alpha virt. eigenvalues --    2.53412   2.54014   2.54482   2.54703   2.55000
 Alpha virt. eigenvalues --    2.55564   2.55789   2.56250   2.56468   2.56763
 Alpha virt. eigenvalues --    2.56848   2.56928   2.57522   2.57893   2.58346
 Alpha virt. eigenvalues --    2.58719   2.58759   2.59043   2.59344   2.59562
 Alpha virt. eigenvalues --    2.59938   2.60090   2.60620   2.60889   2.60949
 Alpha virt. eigenvalues --    2.61036   2.61551   2.61925   2.62017   2.62292
 Alpha virt. eigenvalues --    2.62474   2.62760   2.62907   2.63446   2.63533
 Alpha virt. eigenvalues --    2.63895   2.64226   2.64405   2.64925   2.65076
 Alpha virt. eigenvalues --    2.65254   2.65867   2.66038   2.66195   2.66699
 Alpha virt. eigenvalues --    2.66861   2.67327   2.67913   2.68123   2.68742
 Alpha virt. eigenvalues --    2.68906   2.68982   2.69274   2.69609   2.69845
 Alpha virt. eigenvalues --    2.70320   2.70593   2.70654   2.70744   2.71178
 Alpha virt. eigenvalues --    2.71609   2.71801   2.71827   2.72159   2.72295
 Alpha virt. eigenvalues --    2.72698   2.73330   2.73424   2.73864   2.74120
 Alpha virt. eigenvalues --    2.74263   2.74869   2.75533   2.75574   2.76152
 Alpha virt. eigenvalues --    2.76430   2.76571   2.76917   2.77260   2.77502
 Alpha virt. eigenvalues --    2.77833   2.78217   2.78405   2.78669   2.78829
 Alpha virt. eigenvalues --    2.79632   2.79867   2.80265   2.80480   2.80969
 Alpha virt. eigenvalues --    2.81272   2.81802   2.82066   2.82409   2.82536
 Alpha virt. eigenvalues --    2.82719   2.82844   2.83488   2.83906   2.84239
 Alpha virt. eigenvalues --    2.84866   2.84874   2.85157   2.85531   2.85732
 Alpha virt. eigenvalues --    2.86048   2.86247   2.86496   2.87031   2.87344
 Alpha virt. eigenvalues --    2.87574   2.87756   2.88100   2.88730   2.88840
 Alpha virt. eigenvalues --    2.89120   2.89142   2.89469   2.89952   2.90195
 Alpha virt. eigenvalues --    2.90782   2.90939   2.91073   2.91214   2.91667
 Alpha virt. eigenvalues --    2.91815   2.92268   2.92396   2.92639   2.93006
 Alpha virt. eigenvalues --    2.93339   2.93678   2.93897   2.94285   2.94513
 Alpha virt. eigenvalues --    2.94867   2.95171   2.95885   2.96057   2.96433
 Alpha virt. eigenvalues --    2.96734   2.97486   2.97688   2.97926   2.98709
 Alpha virt. eigenvalues --    2.99185   2.99277   2.99613   2.99760   3.00502
 Alpha virt. eigenvalues --    3.00762   3.00978   3.01527   3.01737   3.02117
 Alpha virt. eigenvalues --    3.02641   3.03055   3.03262   3.03957   3.04224
 Alpha virt. eigenvalues --    3.04767   3.05031   3.05326   3.05621   3.06079
 Alpha virt. eigenvalues --    3.06396   3.06866   3.07178   3.07325   3.07564
 Alpha virt. eigenvalues --    3.08060   3.08565   3.08850   3.09146   3.09644
 Alpha virt. eigenvalues --    3.09728   3.09972   3.10204   3.11064   3.11282
 Alpha virt. eigenvalues --    3.11502   3.11913   3.12219   3.12608   3.13069
 Alpha virt. eigenvalues --    3.13179   3.13791   3.14062   3.14412   3.14597
 Alpha virt. eigenvalues --    3.15135   3.15348   3.15654   3.15746   3.16022
 Alpha virt. eigenvalues --    3.16593   3.16868   3.17165   3.17710   3.18062
 Alpha virt. eigenvalues --    3.18700   3.18876   3.18948   3.19185   3.19243
 Alpha virt. eigenvalues --    3.19701   3.20071   3.20383   3.20416   3.20593
 Alpha virt. eigenvalues --    3.21221   3.21652   3.22138   3.22242   3.22327
 Alpha virt. eigenvalues --    3.23011   3.23273   3.23330   3.23573   3.23685
 Alpha virt. eigenvalues --    3.23984   3.24285   3.24869   3.25105   3.25397
 Alpha virt. eigenvalues --    3.25552   3.25831   3.26027   3.26364   3.26572
 Alpha virt. eigenvalues --    3.26697   3.26956   3.27225   3.27512   3.27673
 Alpha virt. eigenvalues --    3.27868   3.28257   3.28738   3.28923   3.29174
 Alpha virt. eigenvalues --    3.29573   3.29697   3.30315   3.30488   3.30776
 Alpha virt. eigenvalues --    3.30924   3.31226   3.31565   3.31802   3.32673
 Alpha virt. eigenvalues --    3.32854   3.32896   3.33179   3.33573   3.33716
 Alpha virt. eigenvalues --    3.33872   3.34055   3.34704   3.34754   3.35250
 Alpha virt. eigenvalues --    3.35498   3.35717   3.35834   3.36288   3.36398
 Alpha virt. eigenvalues --    3.36700   3.36943   3.37353   3.37627   3.37696
 Alpha virt. eigenvalues --    3.37973   3.38380   3.38766   3.38942   3.39104
 Alpha virt. eigenvalues --    3.39214   3.39350   3.39870   3.40136   3.40232
 Alpha virt. eigenvalues --    3.40432   3.40644   3.41015   3.41426   3.41810
 Alpha virt. eigenvalues --    3.41988   3.42119   3.42207   3.42537   3.42753
 Alpha virt. eigenvalues --    3.42838   3.43269   3.43318   3.43569   3.43787
 Alpha virt. eigenvalues --    3.43989   3.44311   3.44467   3.44851   3.44940
 Alpha virt. eigenvalues --    3.45184   3.45876   3.46148   3.46304   3.46611
 Alpha virt. eigenvalues --    3.46969   3.47317   3.47495   3.47695   3.48030
 Alpha virt. eigenvalues --    3.48206   3.48571   3.48817   3.49146   3.49283
 Alpha virt. eigenvalues --    3.49740   3.49899   3.50354   3.50613   3.51348
 Alpha virt. eigenvalues --    3.51431   3.51563   3.51772   3.52170   3.52422
 Alpha virt. eigenvalues --    3.52695   3.53041   3.53205   3.54131   3.54171
 Alpha virt. eigenvalues --    3.54338   3.54769   3.55009   3.55182   3.55763
 Alpha virt. eigenvalues --    3.56441   3.56479   3.56729   3.56964   3.57349
 Alpha virt. eigenvalues --    3.57566   3.57775   3.57850   3.58325   3.58622
 Alpha virt. eigenvalues --    3.58911   3.59013   3.59339   3.59985   3.60497
 Alpha virt. eigenvalues --    3.60813   3.61175   3.61346   3.61844   3.62032
 Alpha virt. eigenvalues --    3.62476   3.62816   3.63307   3.63809   3.64428
 Alpha virt. eigenvalues --    3.64927   3.64967   3.65518   3.65715   3.66744
 Alpha virt. eigenvalues --    3.67055   3.67235   3.67591   3.68576   3.69004
 Alpha virt. eigenvalues --    3.69323   3.69529   3.70009   3.70397   3.70476
 Alpha virt. eigenvalues --    3.71006   3.71091   3.71346   3.71995   3.72265
 Alpha virt. eigenvalues --    3.72859   3.73415   3.74155   3.74675   3.75086
 Alpha virt. eigenvalues --    3.75131   3.75396   3.75778   3.76735   3.77136
 Alpha virt. eigenvalues --    3.77455   3.78189   3.78657   3.79391   3.79498
 Alpha virt. eigenvalues --    3.80168   3.80340   3.80810   3.81055   3.81408
 Alpha virt. eigenvalues --    3.82033   3.82243   3.82735   3.82964   3.83510
 Alpha virt. eigenvalues --    3.84025   3.84253   3.85140   3.85280   3.85750
 Alpha virt. eigenvalues --    3.86732   3.87095   3.87473   3.87996   3.88450
 Alpha virt. eigenvalues --    3.88763   3.89452   3.89812   3.90916   3.91373
 Alpha virt. eigenvalues --    3.91767   3.91931   3.92574   3.93073   3.93645
 Alpha virt. eigenvalues --    3.94645   3.95311   3.95631   3.95958   3.96462
 Alpha virt. eigenvalues --    3.96842   3.97596   3.98255   3.99073   3.99320
 Alpha virt. eigenvalues --    4.00095   4.00321   4.00906   4.01378   4.02133
 Alpha virt. eigenvalues --    4.03110   4.03703   4.03861   4.04244   4.04753
 Alpha virt. eigenvalues --    4.05128   4.06028   4.06350   4.06907   4.07221
 Alpha virt. eigenvalues --    4.07403   4.08182   4.08238   4.09594   4.09656
 Alpha virt. eigenvalues --    4.10684   4.10817   4.12326   4.12410   4.13435
 Alpha virt. eigenvalues --    4.13680   4.13946   4.14284   4.14519   4.14694
 Alpha virt. eigenvalues --    4.14817   4.15483   4.15832   4.16195   4.16686
 Alpha virt. eigenvalues --    4.17018   4.17499   4.17692   4.18193   4.18624
 Alpha virt. eigenvalues --    4.18964   4.19161   4.19483   4.20243   4.20678
 Alpha virt. eigenvalues --    4.21062   4.21127   4.21791   4.22536   4.22618
 Alpha virt. eigenvalues --    4.23221   4.23270   4.23532   4.23795   4.24246
 Alpha virt. eigenvalues --    4.24858   4.24992   4.25263   4.25676   4.26625
 Alpha virt. eigenvalues --    4.27010   4.27268   4.27476   4.27803   4.28011
 Alpha virt. eigenvalues --    4.29139   4.29592   4.29920   4.30291   4.30488
 Alpha virt. eigenvalues --    4.31280   4.31922   4.32043   4.32540   4.33428
 Alpha virt. eigenvalues --    4.33925   4.34262   4.34485   4.34891   4.35370
 Alpha virt. eigenvalues --    4.35781   4.36209   4.37007   4.37933   4.38240
 Alpha virt. eigenvalues --    4.38257   4.38722   4.39556   4.39746   4.39905
 Alpha virt. eigenvalues --    4.40165   4.40786   4.41444   4.42000   4.43223
 Alpha virt. eigenvalues --    4.43602   4.44133   4.44463   4.44723   4.45021
 Alpha virt. eigenvalues --    4.45305   4.45717   4.46136   4.46307   4.47578
 Alpha virt. eigenvalues --    4.47772   4.47937   4.48859   4.49255   4.50083
 Alpha virt. eigenvalues --    4.51412   4.51553   4.52099   4.52232   4.53078
 Alpha virt. eigenvalues --    4.53664   4.54444   4.55012   4.55199   4.56380
 Alpha virt. eigenvalues --    4.57044   4.58018   4.58564   4.60422   4.61112
 Alpha virt. eigenvalues --    4.61637   4.61907   4.62228   4.64655   4.64848
 Alpha virt. eigenvalues --    4.66507   4.67361   4.68908   4.69212   4.69812
 Alpha virt. eigenvalues --    4.70939   4.72978   4.74283   4.74499   4.75301
 Alpha virt. eigenvalues --    4.75502   4.76627   4.76963   4.77328   4.77882
 Alpha virt. eigenvalues --    4.79791   4.80038   4.80469   4.80816   4.82305
 Alpha virt. eigenvalues --    4.82746   4.84854   4.85270   4.86792   4.87279
 Alpha virt. eigenvalues --    4.87940   4.88741   4.89867   4.91017   4.91628
 Alpha virt. eigenvalues --    4.92897   4.94606   4.95406   4.95956   4.96807
 Alpha virt. eigenvalues --    4.96977   4.97963   4.99045   4.99459   5.00295
 Alpha virt. eigenvalues --    5.03262   5.04193   5.04700   5.04853   5.06320
 Alpha virt. eigenvalues --    5.07454   5.08367   5.08866   5.09800   5.10926
 Alpha virt. eigenvalues --    5.11419   5.11861   5.12536   5.13085   5.13858
 Alpha virt. eigenvalues --    5.14073   5.14847   5.15188   5.17191   5.18261
 Alpha virt. eigenvalues --    5.18543   5.19259   5.21652   5.22341   5.23087
[...]
 
              Baa    -0.0025    -1.323    -0.472    -0.441  0.6829 -0.2314  0.6929
    35 H(1)   Bbb    -0.0020    -1.051    -0.375    -0.351  0.2765  0.9598  0.0480
              Bcc     0.0044     2.374     0.847     0.792 -0.6761  0.1588  0.7195
 
              Baa    -0.0028    -1.491    -0.532    -0.497  0.3781  0.0691  0.9232
    36 H(1)   Bbb    -0.0022    -1.173    -0.418    -0.391  0.0952  0.9890 -0.1130
              Bcc     0.0050     2.664     0.951     0.889  0.9209 -0.1306 -0.3673
 
              Baa    -0.0081    -1.090    -0.389    -0.364  0.7657  0.3216  0.5571
    37 C(13)  Bbb    -0.0074    -0.989    -0.353    -0.330  0.0407  0.8401 -0.5410
              Bcc     0.0155     2.079     0.742     0.694  0.6420 -0.4369 -0.6301
 
              Baa    -0.0057    -3.025    -1.080    -1.009  0.5032 -0.5981  0.6238
    38 H(1)   Bbb    -0.0046    -2.448    -0.873    -0.817  0.7558  0.6545  0.0178
              Bcc     0.0103     5.473     1.953     1.826 -0.4190  0.4625  0.7814
 
              Baa    -0.0089    -1.190    -0.425    -0.397  0.1604  0.3347  0.9286
    39 C(13)  Bbb    -0.0086    -1.154    -0.412    -0.385 -0.1920  0.9334 -0.3033
              Bcc     0.0175     2.344     0.836     0.782  0.9682  0.1296 -0.2140
 
              Baa    -0.0057    -3.067    -1.094    -1.023  0.3477  0.5303  0.7732
    40 H(1)   Bbb    -0.0043    -2.284    -0.815    -0.762 -0.3821  0.8332 -0.3997
              Bcc     0.0100     5.351     1.909     1.785  0.8562  0.1564 -0.4924
 
              Baa    -0.0219     1.584     0.565     0.528 -0.2903  0.8542  0.4313
    41 O(17)  Bbb    -0.0119     0.859     0.307     0.287 -0.4100 -0.5183  0.7505
              Bcc     0.0338    -2.443    -0.872    -0.815  0.8646  0.0410  0.5007
 
              Baa    -0.0190     1.374     0.490     0.458  0.7462  0.5170 -0.4194
    42 O(17)  Bbb    -0.0031     0.222     0.079     0.074  0.6641 -0.5340  0.5233
              Bcc     0.0221    -1.596    -0.569    -0.532 -0.0466  0.6690  0.7418
 
              Baa    -1.3634    65.120    23.236    21.722  0.8984 -0.0585 -0.4353
    43 Ni(61) Bbb    -0.6184    29.538    10.540     9.853  0.4364  0.2306  0.8697
              Bcc     1.9819   -94.657   -33.776   -31.574 -0.0495  0.9713 -0.2327
 
              Baa    -0.2093   -10.952    -3.908    -3.653  0.1256 -0.4180  0.8997
    44 Cl(35) Bbb    -0.0722    -3.778    -1.348    -1.260 -0.4844  0.7657  0.4233
              Bcc     0.2815    14.731     5.256     4.914  0.8658  0.4890  0.1063
 
              Baa    -0.0054    -0.722    -0.258    -0.241  0.6509  0.4104  0.6387
    45 C(13)  Bbb    -0.0028    -0.381    -0.136    -0.127 -0.3824 -0.5495  0.7429
              Bcc     0.0082     1.103     0.394     0.368 -0.6558  0.7278  0.2007
 
              Baa    -0.0033    -0.442    -0.158    -0.147  0.4871  0.8174  0.3077
    46 C(13)  Bbb    -0.0026    -0.347    -0.124    -0.116 -0.1076 -0.2935  0.9499
              Bcc     0.0059     0.789     0.282     0.263  0.8667 -0.4957 -0.0550
 
              Baa    -0.0052    -2.786    -0.994    -0.929  0.1377  0.6193  0.7730
    47 H(1)   Bbb    -0.0042    -2.263    -0.807    -0.755  0.4152  0.6724 -0.6127
              Bcc     0.0095     5.049     1.802     1.684  0.8993 -0.4053  0.1646
 
              Baa    -0.0022    -1.196    -0.427    -0.399  0.2114  0.3777  0.9015
    48 H(1)   Bbb    -0.0019    -1.038    -0.370    -0.346  0.2918  0.8559 -0.4270
              Bcc     0.0042     2.233     0.797     0.745  0.9328 -0.3533 -0.0707
 
              Baa    -0.0021    -1.101    -0.393    -0.367  0.3321  0.5260  0.7830
    49 H(1)   Bbb    -0.0019    -0.994    -0.355    -0.331 -0.4932 -0.6107  0.6195
              Bcc     0.0039     2.095     0.747     0.699  0.8040 -0.5919  0.0566
 
              Baa    -0.0018    -0.235    -0.084    -0.079  0.0683 -0.5288  0.8460
    50 C(13)  Bbb    -0.0016    -0.215    -0.077    -0.072  0.7665  0.5706  0.2948
              Bcc     0.0034     0.450     0.161     0.150  0.6387 -0.6283 -0.4443
 
              Baa    -0.0017    -0.883    -0.315    -0.294  0.7267  0.0072  0.6869
    51 H(1)   Bbb    -0.0016    -0.828    -0.295    -0.276  0.4344  0.7697 -0.4677
              Bcc     0.0032     1.710     0.610     0.571 -0.5321  0.6383  0.5562
 
              Baa    -0.0013    -0.691    -0.247    -0.231  0.5556  0.1430  0.8191
    52 H(1)   Bbb    -0.0012    -0.647    -0.231    -0.216  0.5178  0.7113 -0.4754
              Bcc     0.0025     1.338     0.477     0.446 -0.6506  0.6882  0.3211
 
              Baa    -0.0015    -0.784    -0.280    -0.261  0.5874  0.1713  0.7910
    53 H(1)   Bbb    -0.0013    -0.701    -0.250    -0.234  0.3087  0.8560 -0.4146
              Bcc     0.0028     1.485     0.530     0.495  0.7481 -0.4877 -0.4499
 
              Baa    -0.0054    -0.728    -0.260    -0.243  0.7245  0.1870  0.6634
    54 C(13)  Bbb    -0.0044    -0.584    -0.208    -0.195 -0.4702 -0.5696  0.6741
              Bcc     0.0098     1.312     0.468     0.438 -0.5040  0.8003  0.3248
 
              Baa    -0.0109    -5.816    -2.075    -1.940  0.6313  0.2177  0.7444
    55 H(1)   Bbb    -0.0089    -4.750    -1.695    -1.584 -0.6204 -0.4342  0.6531
              Bcc     0.0198    10.566     3.770     3.524 -0.4654  0.8741  0.1390
 
              Baa    -0.0028    -1.489    -0.531    -0.497  0.5256  0.1769  0.8321
    56 H(1)   Bbb    -0.0024    -1.302    -0.464    -0.434  0.7050  0.4568 -0.5425
              Bcc     0.0052     2.791     0.996     0.931 -0.4761  0.8718  0.1153
 
              Baa    -0.0041    -2.162    -0.771    -0.721  0.4487 -0.2961  0.8432
    57 H(1)   Bbb    -0.0036    -1.933    -0.690    -0.645  0.8455  0.4464 -0.2931
              Bcc     0.0077     4.095     1.461     1.366 -0.2896  0.8444  0.4506
 
              Baa    -0.0060    -0.805    -0.287    -0.268  0.0667 -0.5067  0.8595
    58 C(13)  Bbb    -0.0028    -0.377    -0.134    -0.126 -0.5765  0.6835  0.4477
              Bcc     0.0088     1.181     0.422     0.394  0.8144  0.5254  0.2465
 
              Baa    -0.0033    -0.438    -0.156    -0.146  0.0655  0.8315 -0.5516
    59 C(13)  Bbb    -0.0025    -0.337    -0.120    -0.112 -0.4435  0.5195  0.7304
              Bcc     0.0058     0.775     0.277     0.259  0.8939  0.1968  0.4028
 
              Baa    -0.0049    -2.592    -0.925    -0.865  0.2108  0.8403 -0.4995
    60 H(1)   Bbb    -0.0037    -1.993    -0.711    -0.665 -0.5918  0.5164  0.6189
              Bcc     0.0086     4.585     1.636     1.529  0.7780  0.1651  0.6061
 
              Baa    -0.0022    -1.166    -0.416    -0.389 -0.4207 -0.1371  0.8968
    61 H(1)   Bbb    -0.0021    -1.136    -0.405    -0.379 -0.0661  0.9905  0.1204
              Bcc     0.0043     2.302     0.821     0.768  0.9048  0.0087  0.4258
 
              Baa    -0.0020    -1.056    -0.377    -0.352  0.0821  0.7466 -0.6602
    62 H(1)   Bbb    -0.0017    -0.904    -0.323    -0.302 -0.5276  0.5945  0.6067
              Bcc     0.0037     1.960     0.699     0.654  0.8455  0.2986  0.4427
 
              Baa    -0.0041    -0.554    -0.198    -0.185  0.0960 -0.1902  0.9770
    63 C(13)  Bbb    -0.0030    -0.407    -0.145    -0.136 -0.6076  0.7663  0.2089
              Bcc     0.0072     0.961     0.343     0.321  0.7884  0.6137  0.0420
 
              Baa    -0.0036    -1.895    -0.676    -0.632  0.2599  0.0573  0.9639
    64 H(1)   Bbb    -0.0026    -1.390    -0.496    -0.464 -0.6011  0.7908  0.1151
              Bcc     0.0062     3.285     1.172     1.096  0.7557  0.6093 -0.2400
 
              Baa    -0.0086    -4.566    -1.629    -1.523  0.1426 -0.3184  0.9372
    65 H(1)   Bbb    -0.0056    -2.962    -1.057    -0.988  0.6871 -0.6497 -0.3252
              Bcc     0.0141     7.528     2.686     2.511  0.7124  0.6903  0.1261
 
              Baa    -0.0025    -1.339    -0.478    -0.447  0.0721 -0.2613  0.9626
    66 H(1)   Bbb    -0.0019    -1.031    -0.368    -0.344 -0.6282  0.7377  0.2473
              Bcc     0.0044     2.370     0.846     0.791  0.7747  0.6225  0.1110
 
              Baa    -0.0018    -0.236    -0.084    -0.079 -0.0445  0.3666  0.9293
    67 C(13)  Bbb    -0.0016    -0.216    -0.077    -0.072 -0.3221  0.8753 -0.3607
              Bcc     0.0034     0.452     0.161     0.151  0.9457  0.3154 -0.0791
 
              Baa    -0.0015    -0.786    -0.280    -0.262  0.2244 -0.0169  0.9743
    68 H(1)   Bbb    -0.0014    -0.733    -0.262    -0.245 -0.2979  0.9508  0.0851
              Bcc     0.0028     1.519     0.542     0.507  0.9278  0.3093 -0.2084
 
              Baa    -0.0012    -0.653    -0.233    -0.218  0.1371 -0.4827  0.8650
    69 H(1)   Bbb    -0.0011    -0.585    -0.209    -0.195 -0.3466  0.7947  0.4984
              Bcc     0.0023     1.238     0.442     0.413  0.9280  0.3681  0.0584
 
              Baa    -0.0014    -0.747    -0.267    -0.249  0.0089 -0.1427  0.9897
    70 H(1)   Bbb    -0.0012    -0.661    -0.236    -0.220 -0.1153  0.9830  0.1428
              Bcc     0.0026     1.408     0.502     0.470  0.9933  0.1154  0.0077
 
              Baa    -0.0100    -1.341    -0.478    -0.447  0.1285  0.9772 -0.1692
    71 C(13)  Bbb    -0.0047    -0.630    -0.225    -0.210  0.8972 -0.1872 -0.4000
              Bcc     0.0147     1.971     0.703     0.657  0.4226  0.1004  0.9008
 
              Baa    -0.0136    -1.820    -0.650    -0.607 -0.3533 -0.0701  0.9329
    72 C(13)  Bbb     0.0013     0.180     0.064     0.060 -0.4128  0.9065 -0.0882
              Bcc     0.0122     1.640     0.585     0.547  0.8395  0.4163  0.3492
 
              Baa    -0.0135    -1.811    -0.646    -0.604 -0.5507  0.1003  0.8286
    73 C(13)  Bbb     0.0022     0.301     0.107     0.100  0.0502  0.9949 -0.0871
              Bcc     0.0113     1.510     0.539     0.504  0.8332  0.0064  0.5530
 
              Baa    -0.0043    -0.571    -0.204    -0.191 -0.4486  0.8775 -0.1698
    74 C(13)  Bbb    -0.0008    -0.104    -0.037    -0.035  0.8047  0.3139 -0.5040
              Bcc     0.0050     0.676     0.241     0.225  0.3889  0.3627  0.8469
 
              Baa    -0.0075    -4.003    -1.428    -1.335  0.8614 -0.3945 -0.3200
    75 H(1)   Bbb    -0.0060    -3.209    -1.145    -1.070 -0.0554 -0.6991  0.7128
              Bcc     0.0135     7.212     2.573     2.406  0.5049  0.5963  0.6241
 
              Baa    -0.0039    -0.529    -0.189    -0.176  0.0864  0.9940 -0.0675
    76 C(13)  Bbb    -0.0000    -0.004    -0.002    -0.001  0.9866 -0.0947 -0.1326
              Bcc     0.0040     0.533     0.190     0.178  0.1382  0.0551  0.9889
 
              Baa    -0.0032    -1.728    -0.617    -0.576 -0.1234  0.8999  0.4183
    77 H(1)   Bbb    -0.0022    -1.176    -0.419    -0.392 -0.5778 -0.4079  0.7069
              Bcc     0.0054     2.904     1.036     0.969  0.8068 -0.1545  0.5703
 
              Baa    -0.0115    -1.546    -0.552    -0.516 -0.3401  0.0391  0.9396
    78 C(13)  Bbb     0.0037     0.501     0.179     0.167 -0.2125  0.9701 -0.1173
              Bcc     0.0078     1.044     0.373     0.348  0.9161  0.2396  0.3216
 
              Baa    -0.0021    -1.100    -0.392    -0.367  0.7105 -0.2041 -0.6735
    79 H(1)   Bbb    -0.0017    -0.912    -0.325    -0.304 -0.2957  0.7818 -0.5489
              Bcc     0.0038     2.011     0.718     0.671  0.6385  0.5892  0.4951
 
              Baa    -0.0013    -0.697    -0.249    -0.233  0.0887  0.9861 -0.1401
    80 H(1)   Bbb    -0.0010    -0.511    -0.182    -0.170 -0.4820  0.1656  0.8604
              Bcc     0.0023     1.208     0.431     0.403  0.8717 -0.0088  0.4900
 
              Baa    -0.0009    -0.116    -0.041    -0.039 -0.2741  0.8811 -0.3854
    81 C(13)  Bbb    -0.0007    -0.096    -0.034    -0.032 -0.5353  0.1932  0.8223
              Bcc     0.0016     0.212     0.076     0.071  0.7990  0.4316  0.4187
 
              Baa    -0.0008    -0.436    -0.156    -0.145 -0.5987  0.7974  0.0762
    82 H(1)   Bbb    -0.0007    -0.396    -0.141    -0.132 -0.3598 -0.3527  0.8638
              Bcc     0.0016     0.832     0.297     0.277  0.7157  0.4897  0.4980
 
              Baa    -0.0010    -0.521    -0.186    -0.174  0.0661 -0.5938  0.8019
    83 H(1)   Bbb    -0.0009    -0.470    -0.168    -0.157 -0.5932  0.6228  0.5101
              Bcc     0.0019     0.990     0.353     0.330  0.8023  0.5094  0.3111
 
              Baa    -0.0005    -0.288    -0.103    -0.096 -0.0270 -0.6657  0.7458
    84 H(1)   Bbb    -0.0005    -0.271    -0.097    -0.090 -0.5725  0.6218  0.5343
              Bcc     0.0010     0.559     0.199     0.186  0.8194  0.4126  0.3979
 
              Baa    -0.0103     0.746     0.266     0.249 -0.3133  0.0699  0.9471
    85 O(17)  Bbb     0.0035    -0.251    -0.090    -0.084 -0.2695  0.9497 -0.1593
              Bcc     0.0068    -0.495    -0.177    -0.165  0.9106  0.3052  0.2787
 
              Baa    -0.0097    -5.201    -1.856    -1.735  0.0754  0.8218 -0.5648
    86 H(1)   Bbb    -0.0050    -2.676    -0.955    -0.893  0.9737 -0.1828 -0.1360
              Bcc     0.0148     7.877     2.811     2.628  0.2150  0.5397  0.8139
 
              Baa    -0.0067    -0.904    -0.322    -0.301 -0.0596  0.5691  0.8201
    87 C(13)  Bbb    -0.0051    -0.686    -0.245    -0.229  0.9972  0.0706  0.0234
              Bcc     0.0118     1.590     0.567     0.530 -0.0446  0.8192 -0.5717
 
              Baa    -0.0033    -0.449    -0.160    -0.150  0.1609  0.6288  0.7607
    88 C(13)  Bbb    -0.0030    -0.408    -0.146    -0.136  0.9619  0.0729 -0.2637
              Bcc     0.0064     0.857     0.306     0.286 -0.2212  0.7742 -0.5931
 
              Baa    -0.0056    -0.750    -0.268    -0.250  0.2267  0.1844  0.9564
    89 C(13)  Bbb    -0.0044    -0.594    -0.212    -0.198  0.9581 -0.2185 -0.1850
              Bcc     0.0100     1.344     0.479     0.448  0.1748  0.9583 -0.2262
 
              Baa    -0.0024    -0.320    -0.114    -0.107  0.5806  0.4630  0.6697
    90 C(13)  Bbb    -0.0012    -0.164    -0.059    -0.055  0.8035 -0.1926 -0.5633
              Bcc     0.0036     0.484     0.173     0.161 -0.1319  0.8652 -0.4838
 
              Baa    -0.0028    -1.469    -0.524    -0.490  0.2597  0.7807  0.5684
    91 H(1)   Bbb    -0.0024    -1.279    -0.457    -0.427  0.9276 -0.0380 -0.3717
              Bcc     0.0052     2.749     0.981     0.917  0.2685 -0.6238  0.7340
 
              Baa    -0.0032    -0.427    -0.152    -0.143  0.4638  0.1142  0.8785
    92 C(13)  Bbb    -0.0022    -0.292    -0.104    -0.097  0.8633 -0.2811 -0.4193
              Bcc     0.0054     0.719     0.257     0.240  0.1991  0.9529 -0.2289
 
              Baa    -0.0085    -4.550    -1.623    -1.518  0.2358  0.0887  0.9677
    93 H(1)   Bbb    -0.0046    -2.434    -0.868    -0.812  0.9072 -0.3772 -0.1864
              Bcc     0.0131     6.983     2.492     2.329  0.3485  0.9219 -0.1694
 
              Baa    -0.0021    -0.281    -0.100    -0.094 -0.5745  0.1326  0.8077
    94 C(13)  Bbb    -0.0016    -0.210    -0.075    -0.070  0.8144  0.1908  0.5480
              Bcc     0.0037     0.491     0.175     0.164 -0.0815  0.9726 -0.2176
 
              Baa    -0.0013    -0.716    -0.255    -0.239  0.2674  0.5263  0.8072
    95 H(1)   Bbb    -0.0012    -0.626    -0.223    -0.209  0.9189  0.1128 -0.3780
              Bcc     0.0025     1.342     0.479     0.448 -0.2900  0.8428 -0.4534
 
              Baa    -0.0022    -1.187    -0.424    -0.396  0.1250 -0.0299  0.9917
    96 H(1)   Bbb    -0.0018    -0.955    -0.341    -0.319  0.9698 -0.2075 -0.1285
              Bcc     0.0040     2.142     0.764     0.715  0.2097  0.9778  0.0031
 
              Baa    -0.0012    -0.638    -0.228    -0.213  0.0947  0.1721  0.9805
    97 H(1)   Bbb    -0.0011    -0.570    -0.203    -0.190  0.9925  0.0600 -0.1064
              Bcc     0.0023     1.208     0.431     0.403 -0.0771  0.9833 -0.1651
 

 ---------------------------------------------------------------------------------

 1\1\GINC-M9-1-1\SP\UM06L\Gen\C41H46Cl1N4Ni2O3(4)\MALLA1\24-Aug-2022\0\
 \#m06l/gen pseudo=read integral=ultrafine temperature=308 scrf=(read)\
 \Title Card Required\\0,4\C,0,-1.886029,-3.145451,2.137798\C,0,-0.9128
 28,-4.123982,1.907511\C,0,0.332943,-3.754133,1.319743\C,0,0.49124,-2.3
 77656,0.875089\C,0,-1.655403,-1.83032,1.692655\H,0,1.348154,-5.682888,
 1.478284\H,0,-2.811958,-3.373448,2.685301\H,0,-1.067775,-5.16277,2.237
 873\C,0,1.446725,-4.630155,1.171191\C,0,2.751897,-2.778999,0.330652\C,
 0,2.663647,-4.137963,0.685146\H,0,3.551859,-4.781164,0.603267\N,0,1.67
 4482,-1.927263,0.388623\N,0,-0.533664,-1.484851,0.968911\C,0,-2.455177
 ,-0.68681,2.09339\C,0,3.973686,-2.09868,-0.064157\N,0,-2.157173,0.5394
 96,1.743837\N,0,3.994129,-0.812144,-0.303158\Ni,0,2.025146,-0.073698,-
 0.35333\C,0,-0.390938,0.455606,-1.846237\C,0,-1.741455,0.578276,-1.484
 658\C,0,1.770542,-0.381344,-2.318418\H,0,2.572582,-1.03453,-2.698592\C
 ,0,0.306439,-0.770834,-2.433655\H,0,0.00085,-0.8771,-3.508603\C,0,1.89
 1038,1.019488,-2.152352\H,0,2.802727,1.591679,-2.388303\C,0,0.502986,1
 .642551,-2.292236\H,0,0.301161,1.713179,-3.397138\H,0,-2.101277,1.6207
 91,-1.391903\C,0,6.141616,-1.791541,-0.575184\H,0,6.573673,-2.106194,-
 1.545934\H,0,6.941577,-1.808646,0.192739\C,0,-3.984735,0.477277,3.2491
 9\H,0,-4.119518,0.589927,4.341308\H,0,-4.974577,0.549968,2.749328\C,0,
 -2.926098,1.436482,2.640171\H,0,-2.218025,1.759776,3.441574\C,0,5.3744
 74,-0.43147,-0.649527\H,0,5.382292,-0.046598,-1.695635\O,0,-3.451989,-
 0.854491,2.998374\O,0,5.138389,-2.776007,-0.18878\Ni,0,-0.55812,0.4465
 93,0.334467\Cl,0,1.344337,1.185007,1.566756\C,0,-3.483484,2.74583,2.00
 9842\C,0,-4.457784,2.454091,0.852618\H,0,-3.983273,1.807939,0.08884\H,
 0,-5.383243,1.945172,1.194839\H,0,-4.767588,3.400612,0.362297\C,0,-4.2
 11905,3.538384,3.120594\H,0,-3.535789,3.753069,3.975702\H,0,-4.572367,
 4.51105,2.725208\H,0,-5.097592,2.993935,3.511904\C,0,-2.297362,3.58355
 6,1.491534\H,0,-1.749223,3.061699,0.681019\H,0,-2.652113,4.553437,1.08
 5587\H,0,-1.570315,3.798736,2.302535\C,0,5.947744,0.713023,0.25258\C,0
 ,5.868795,0.326623,1.743649\H,0,4.817265,0.148372,2.049158\H,0,6.45677
 9,-0.587226,1.974958\H,0,6.274367,1.144357,2.37523\C,0,5.117313,1.9910
 68,0.009569\H,0,5.167947,2.305902,-1.054871\H,0,4.051256,1.831115,0.27
 1996\H,0,5.504267,2.828469,0.627557\C,0,7.413137,0.977001,-0.15921\H,0
 ,7.490828,1.232356,-1.238036\H,0,7.826249,1.830564,0.417874\H,0,8.0713
 35,0.103316,0.033273\C,0,-2.842823,-0.400365,-1.656393\C,0,-2.723637,-
 1.806026,-1.53885\C,0,-4.124888,0.101178,-2.017445\C,0,-3.808075,-2.66
 921,-1.770335\H,0,-1.76565,-2.247546,-1.234078\C,0,-5.213326,-0.74208,
 -2.255899\H,0,-4.261499,1.188198,-2.136365\C,0,-5.068007,-2.143695,-2.
 134085\H,0,-3.658814,-3.752095,-1.655419\H,0,-6.195435,-0.336138,-2.54
 355\C,0,-6.088951,-4.307352,-2.269066\H,0,-5.348759,-4.731452,-2.98399
 9\H,0,-5.814049,-4.622359,-1.237517\H,0,-7.092251,-4.705142,-2.51146\O
 ,0,-6.181515,-2.891423,-2.382021\H,0,0.064834,-1.730042,-1.93943\C,0,0
 .246959,3.045223,-1.770493\C,0,-0.786373,3.820458,-2.350839\C,0,1.0520
 81,3.644792,-0.778252\C,0,-1.01866,5.145189,-1.94399\H,0,-1.402761,3.3
 83367,-3.154781\C,0,0.827536,4.973811,-0.375102\H,0,1.85539,3.054091,-
 0.315424\C,0,-0.208284,5.728773,-0.952644\H,0,-1.826206,5.729439,-2.41
 4205\H,0,1.472242,5.422623,0.397846\H,0,-0.378981,6.771048,-0.638389\\
 Version=ES64L-G16RevB.01\State=4-A\HF=-2834.2671513\S2=3.845351\S2-1=0
 .\S2A=3.753481\RMSD=2.252e-09\Dipole=-0.3705697,-1.3003918,-0.5243229\
 Quadrupole=14.0445927,2.2535681,-16.2981608,-2.6489502,-10.8924745,2.5
 751436\PG=C01 [X(C41H46Cl1N4Ni2O3)]\\@


 YOU KNOW YOU'VE SPOKEN TOO LONG WHEN THE AUDIENCE STOPS LOOKING AT
 THEIR WATCHES AND STARTS SHAKING THEM.
 Job cpu time:       1 days  7 hours 43 minutes 38.4 seconds.
 Elapsed time:       0 days  2 hours 38 minutes 51.1 seconds.
 File lengths (MBytes):  RWF=   3710 Int=      0 D2E=      0 Chk=    238 Scr=      1
 Normal termination of Gaussian 16 at Wed Aug 24 17:58:25 2022.
