 Entering Gaussian System, Link 0=g16
 Input=Pro_R_E_ts2_m06l.com
 Output=Pro_R_E_ts2_m06l.log
 Initial command:
 /apps/gaussian16/B.01/AVX2/g16/l1.exe "/tmp/51822060/Gau-31345.inp" -scrdir="/tmp/51822060/"
 Entering Link 1 = /apps/gaussian16/B.01/AVX2/g16/l1.exe PID=     31346.
  
 Copyright (c) 1988-2017, Gaussian, Inc.  All Rights Reserved.
  
 This is part of the Gaussian(R) 16 program.  It is based on
 the Gaussian(R) 09 system (copyright 2009, Gaussian, Inc.),
 the Gaussian(R) 03 system (copyright 2003, Gaussian, Inc.),
 the Gaussian(R) 98 system (copyright 1998, Gaussian, Inc.),
 the Gaussian(R) 94 system (copyright 1995, Gaussian, Inc.),
 the Gaussian 92(TM) system (copyright 1992, Gaussian, Inc.),
 the Gaussian 90(TM) system (copyright 1990, Gaussian, Inc.),
 the Gaussian 88(TM) system (copyright 1988, Gaussian, Inc.),
 the Gaussian 86(TM) system (copyright 1986, Carnegie Mellon
 University), and the Gaussian 82(TM) system (copyright 1983,
 Carnegie Mellon University). Gaussian is a federally registered
 trademark of Gaussian, Inc.
  
 This software contains proprietary and confidential information,
 including trade secrets, belonging to Gaussian, Inc.
  
 This software is provided under written license and may be
 used, copied, transmitted, or stored only in accord with that
 written license.
  
 The following legend is applicable only to US Government
 contracts under FAR:
  
                    RESTRICTED RIGHTS LEGEND
  
 Use, reproduction and disclosure by the US Government is
 subject to restrictions as set forth in subparagraphs (a)
 and (c) of the Commercial Computer Software - Restricted
 Rights clause in FAR 52.227-19.
  
 Gaussian, Inc.
 340 Quinnipiac St., Bldg. 40, Wallingford CT 06492
  
  
 ---------------------------------------------------------------
 Warning -- This program may not be used in any manner that
 competes with the business of Gaussian, Inc. or will provide
 assistance to any competitor of Gaussian, Inc.  The licensee
 of this program is prohibited from giving any competitor of
 Gaussian, Inc. access to this program.  By using this program,
 the user acknowledges that Gaussian, Inc. is engaged in the
 business of creating and licensing software in the field of
 computational chemistry and represents and warrants to the
 licensee that it is not a competitor of Gaussian, Inc. and that
 it will not use this program in any manner prohibited above.
 ---------------------------------------------------------------
  

 Cite this work as:
 Gaussian 16, Revision B.01,
 M. J. Frisch, G. W. Trucks, H. B. Schlegel, G. E. Scuseria, 
 M. A. Robb, J. R. Cheeseman, G. Scalmani, V. Barone, 
 G. A. Petersson, H. Nakatsuji, X. Li, M. Caricato, A. V. Marenich, 
 J. Bloino, B. G. Janesko, R. Gomperts, B. Mennucci, H. P. Hratchian, 
 J. V. Ortiz, A. F. Izmaylov, J. L. Sonnenberg, D. Williams-Young, 
 F. Ding, F. Lipparini, F. Egidi, J. Goings, B. Peng, A. Petrone, 
 T. Henderson, D. Ranasinghe, V. G. Zakrzewski, J. Gao, N. Rega, 
 G. Zheng, W. Liang, M. Hada, M. Ehara, K. Toyota, R. Fukuda, 
 J. Hasegawa, M. Ishida, T. Nakajima, Y. Honda, O. Kitao, H. Nakai, 
 T. Vreven, K. Throssell, J. A. Montgomery, Jr., J. E. Peralta, 
 F. Ogliaro, M. J. Bearpark, J. J. Heyd, E. N. Brothers, K. N. Kudin, 
 V. N. Staroverov, T. A. Keith, R. Kobayashi, J. Normand, 
 K. Raghavachari, A. P. Rendell, J. C. Burant, S. S. Iyengar, 
 J. Tomasi, M. Cossi, J. M. Millam, M. Klene, C. Adamo, R. Cammi, 
 J. W. Ochterski, R. L. Martin, K. Morokuma, O. Farkas, 
 J. B. Foresman, and D. J. Fox, Gaussian, Inc., Wallingford CT, 2016.
 
 ******************************************
 Gaussian 16:  ES64L-G16RevB.01 20-Dec-2017
                24-Aug-2022 
 ******************************************
 %nprocshared=12
 Will use up to   12 processors via shared memory.
 %mem=24GB
 --------------------------------------------------------------------
 #m06l/gen pseudo=read integral=ultrafine temperature=308 scrf=(read)
 --------------------------------------------------------------------
 1/38=1,40=2,112=308000,172=1/1;
 2/12=2,17=6,18=5,40=1/2;
 3/5=7,11=2,16=1,17=8,25=1,30=1,70=2203,74=-53,75=-5/1,2,3;
 4//1;
 5/5=2,38=5/2;
 6/7=2,8=2,9=2,10=2,28=1/1;
 99/5=1,9=1/99;
 -------------------
 Title Card Required
 -------------------
 Symbolic Z-matrix:
 Charge =  0 Multiplicity = 2
 C                     2.37543  -2.87381   2.52274 
 C                     1.3952   -2.77142   3.51388 
 C                     0.18142  -2.09521   3.24052 
 C                     0.01369  -1.50966   1.92283 
 C                     2.15231  -2.27584   1.26753 
 H                    -0.76799  -2.40953   5.18984 
 H                     3.32399  -3.3971    2.70319 
 H                     1.5494   -3.22095   4.50705 
 C                    -0.89316  -1.98631   4.18181 
 C                    -2.21321  -0.89912   2.47924 
 C                    -2.09471  -1.40524   3.78969 
 H                    -2.96503  -1.36539   4.46079 
 N                    -1.15272  -0.87445   1.58826 
 N                     0.99538  -1.61274   0.98203 
 C                     3.18801  -2.3643    0.2176 
 C                    -3.44511  -0.47227   1.86649 
 N                     3.42085  -1.51378  -0.72476 
 N                    -3.49509  -0.18608   0.5787 
 Ni                   -1.58362   0.19009  -0.01859 
 C                     0.26436   0.73989   0.01388 
 C                     0.64681   1.70409   0.89437 
 C                    -1.46172   0.43694  -2.22332 
 H                    -2.22611  -0.21285  -2.68052 
 C                    -1.8848    1.61666  -1.563 
 H                    -1.11156   2.34442  -1.26529 
 C                    -0.07374   0.07495  -2.48601 
 H                     0.11804  -0.70945  -3.23285 
 C                     1.00608   0.84542  -1.92648 
 H                     0.91071   1.93432  -1.78897 
 H                    -0.12631   2.01135   1.62919 
 C                    -5.57397   0.14474   1.61487 
 H                    -5.68652   1.22683   1.83986 
 H                    -6.54044  -0.36551   1.78411 
 C                     4.93693  -3.36449  -0.78626 
 H                     4.91725  -4.29585  -1.38414 
 H                     5.94076  -3.25703  -0.32164 
 C                     4.47739  -2.10064  -1.57412 
 H                     3.9862   -2.41128  -2.52703 
 C                    -4.93294  -0.10553   0.2284 
 H                    -5.1074    0.75509  -0.44765 
 O                     3.95965  -3.4924    0.27969 
 O                    -4.60402  -0.40938   2.55836 
 Ni                    0.57084  -0.91975  -0.8065 
 Cl                    0.41457  -2.9669   -1.76715 
 C                     5.61471  -1.10634  -1.96867 
 C                     6.31296  -0.53136  -0.71902 
 H                     5.58357  -0.02746  -0.05211 
 H                     6.82903  -1.31571  -0.12595 
 H                     7.08246   0.21284  -1.01357 
 C                     6.63817  -1.86221  -2.84635 
 H                     6.15499  -2.2947   -3.7486 
 H                     7.43783  -1.17299  -3.19019 
 H                     7.13279  -2.6896   -2.29468 
 C                     5.0046    0.04713  -2.7931 
 H                     4.28704   0.63732  -2.18901 
 H                     5.79886   0.7375   -3.1474 
 H                     4.46536  -0.33704  -3.68513 
 C                    -5.45339  -1.40413  -0.49712 
 C                    -5.36253  -2.64593   0.41704 
 H                    -4.3139   -2.85503   0.71378 
 H                    -5.97125  -2.54416   1.33917 
 H                    -5.73418  -3.54074  -0.12481 
 C                    -4.61283  -1.66286  -1.76399 
 H                    -4.67125  -0.8062   -2.46598 
 H                    -3.54769  -1.83606  -1.50938 
 H                    -4.98774  -2.56166  -2.29691 
 C                    -6.92286  -1.1608   -0.90918 
 H                    -7.0132   -0.27644  -1.57512 
 H                    -7.3188   -2.04027  -1.45869 
 H                    -7.58624  -0.99634  -0.03376 
 C                     1.89533   2.47099   0.97165 
 C                     1.92688   3.68482   1.70433 
 C                     3.1051    2.0525    0.34865 
 C                     3.08747   4.46905   1.80046 
 H                     1.00989   4.02875   2.21151 
 C                     4.2659    2.82345   0.43794 
 H                     3.13436   1.08307  -0.17489 
 C                     4.27174   4.04461   1.15659 
 H                     3.05901   5.40456   2.37699 
 H                     5.20312   2.49394  -0.03634 
 C                     5.52191   5.9511    1.89514 
 H                     4.81639   6.708     1.48501 
 H                     5.30785   5.80882   2.97812 
 H                     6.557     6.32326   1.77854 
 O                     5.4544    4.72338   1.17808 
 H                     2.03415   0.5263   -2.16842 
 C                    -3.2329    2.22114  -1.66198 
 C                    -4.12864   1.91929  -2.71849 
 C                    -3.62387   3.21079  -0.72254 
 C                    -5.37665   2.55921  -2.81385 
 H                    -3.82904   1.20032  -3.4966 
 C                    -4.8719    3.84466  -0.8133 
 H                    -2.93309   3.47309   0.09541 
 C                    -5.7587    3.51816  -1.85837 
 H                    -6.05035   2.31489  -3.65068 
 H                    -5.15407   4.6055   -0.06798 
 H                    -6.73559   4.02102  -1.93565 
 
 Stoichiometry    C41H46ClN4Ni2O3(2)
 Framework group  C1[X(C41H46ClN4Ni2O3)]
 Deg. of freedom   285
 Full point group                 C1      NOp   1
 Largest Abelian subgroup         C1      NOp   1
 Largest concise Abelian subgroup C1      NOp   1
                         Standard orientation:                         
 ---------------------------------------------------------------------
 Center     Atomic      Atomic             Coordinates (Angstroms)
 Number     Number       Type             X           Y           Z
 ---------------------------------------------------------------------
      1          6           0        2.375427   -2.873813    2.522736
      2          6           0        1.395201   -2.771417    3.513879
      3          6           0        0.181420   -2.095206    3.240521
      4          6           0        0.013693   -1.509663    1.922831
      5          6           0        2.152313   -2.275838    1.267528
      6          1           0       -0.767987   -2.409534    5.189838
      7          1           0        3.323994   -3.397097    2.703192
      8          1           0        1.549397   -3.220948    4.507047
      9          6           0       -0.893164   -1.986306    4.181814
     10          6           0       -2.213206   -0.899124    2.479242
     11          6           0       -2.094715   -1.405238    3.789688
     12          1           0       -2.965029   -1.365390    4.460787
     13          7           0       -1.152719   -0.874451    1.588258
     14          7           0        0.995377   -1.612742    0.982028
     15          6           0        3.188007   -2.364296    0.217597
     16          6           0       -3.445112   -0.472270    1.866491
     17          7           0        3.420852   -1.513778   -0.724760
     18          7           0       -3.495092   -0.186075    0.578703
     19         28           0       -1.583621    0.190085   -0.018593
     20          6           0        0.264362    0.739886    0.013879
     21          6           0        0.646814    1.704086    0.894368
     22          6           0       -1.461715    0.436944   -2.223321
     23          1           0       -2.226113   -0.212849   -2.680517
     24          6           0       -1.884804    1.616657   -1.562996
     25          1           0       -1.111562    2.344421   -1.265292
     26          6           0       -0.073740    0.074954   -2.486013
     27          1           0        0.118040   -0.709445   -3.232849
     28          6           0        1.006075    0.845422   -1.926484
     29          1           0        0.910706    1.934321   -1.788968
     30          1           0       -0.126305    2.011348    1.629194
     31          6           0       -5.573974    0.144736    1.614870
     32          1           0       -5.686520    1.226827    1.839862
     33          1           0       -6.540438   -0.365513    1.784110
     34          6           0        4.936929   -3.364494   -0.786255
     35          1           0        4.917254   -4.295848   -1.384138
     36          1           0        5.940761   -3.257033   -0.321642
     37          6           0        4.477393   -2.100643   -1.574116
     38          1           0        3.986203   -2.411282   -2.527028
     39          6           0       -4.932941   -0.105533    0.228402
     40          1           0       -5.107403    0.755088   -0.447647
     41          8           0        3.959653   -3.492404    0.279688
     42          8           0       -4.604022   -0.409375    2.558363
     43         28           0        0.570840   -0.919752   -0.806501
     44         17           0        0.414574   -2.966898   -1.767149
     45          6           0        5.614707   -1.106344   -1.968674
     46          6           0        6.312957   -0.531363   -0.719024
     47          1           0        5.583572   -0.027463   -0.052109
     48          1           0        6.829031   -1.315705   -0.125951
     49          1           0        7.082459    0.212837   -1.013572
     50          6           0        6.638172   -1.862205   -2.846348
     51          1           0        6.154987   -2.294697   -3.748602
     52          1           0        7.437825   -1.172989   -3.190193
     53          1           0        7.132791   -2.689603   -2.294675
     54          6           0        5.004599    0.047125   -2.793097
     55          1           0        4.287036    0.637317   -2.189009
     56          1           0        5.798857    0.737497   -3.147402
     57          1           0        4.465358   -0.337039   -3.685128
     58          6           0       -5.453388   -1.404133   -0.497118
     59          6           0       -5.362530   -2.645929    0.417036
     60          1           0       -4.313899   -2.855030    0.713777
     61          1           0       -5.971245   -2.544164    1.339169
     62          1           0       -5.734177   -3.540740   -0.124808
     63          6           0       -4.612826   -1.662858   -1.763987
     64          1           0       -4.671251   -0.806200   -2.465978
     65          1           0       -3.547685   -1.836059   -1.509381
     66          1           0       -4.987743   -2.561661   -2.296911
     67          6           0       -6.922855   -1.160803   -0.909178
     68          1           0       -7.013202   -0.276440   -1.575120
     69          1           0       -7.318804   -2.040270   -1.458691
     70          1           0       -7.586243   -0.996340   -0.033760
     71          6           0        1.895327    2.470991    0.971645
     72          6           0        1.926876    3.684816    1.704333
     73          6           0        3.105100    2.052503    0.348652
     74          6           0        3.087475    4.469047    1.800456
     75          1           0        1.009891    4.028747    2.211511
     76          6           0        4.265899    2.823454    0.437935
     77          1           0        3.134365    1.083070   -0.174886
     78          6           0        4.271741    4.044609    1.156585
     79          1           0        3.059011    5.404556    2.376995
     80          1           0        5.203121    2.493937   -0.036341
     81          6           0        5.521911    5.951099    1.895137
     82          1           0        4.816390    6.708002    1.485014
     83          1           0        5.307853    5.808820    2.978124
     84          1           0        6.556995    6.323262    1.778544
     85          8           0        5.454400    4.723381    1.178077
     86          1           0        2.034147    0.526299   -2.168422
     87          6           0       -3.232903    2.221143   -1.661982
     88          6           0       -4.128640    1.919287   -2.718491
     89          6           0       -3.623870    3.210786   -0.722543
     90          6           0       -5.376650    2.559206   -2.813853
     91          1           0       -3.829041    1.200316   -3.496597
     92          6           0       -4.871897    3.844663   -0.813304
     93          1           0       -2.933091    3.473090    0.095408
     94          6           0       -5.758695    3.518162   -1.858365
     95          1           0       -6.050346    2.314894   -3.650682
     96          1           0       -5.154071    4.605501   -0.067981
     97          1           0       -6.735595    4.021018   -1.935647
 ---------------------------------------------------------------------
 Rotational constants (GHZ):           0.0752315           0.0391000           0.0345365
 General basis read from cards:  (5D, 7F)
 ======================================================================================================
                                       Pseudopotential Parameters
 ======================================================================================================
  Center     Atomic      Valence      Angular      Power
  Number     Number     Electrons     Momentum     of R      Exponent        Coefficient   SO-Coeffient
 ======================================================================================================
    1          6
                                   No pseudopotential on this center.
    2          6
                                   No pseudopotential on this center.
    3          6
                                   No pseudopotential on this center.
    4          6
                                   No pseudopotential on this center.
    5          6
                                   No pseudopotential on this center.
    6          1
                                   No pseudopotential on this center.
    7          1
                                   No pseudopotential on this center.
    8          1
                                   No pseudopotential on this center.
    9          6
                                   No pseudopotential on this center.
   10          6
                                   No pseudopotential on this center.
   11          6
                                   No pseudopotential on this center.
   12          1
                                   No pseudopotential on this center.
   13          7
                                   No pseudopotential on this center.
   14          7
                                   No pseudopotential on this center.
   15          6
                                   No pseudopotential on this center.
   16          6
                                   No pseudopotential on this center.
   17          7
                                   No pseudopotential on this center.
   18          7
                                   No pseudopotential on this center.
   19         28           18
                                      D and up 
                                                     1      469.9324331      -10.00000000    0.00000000
                                                     2       85.4236411      -69.40848050    0.00000000
                                                     2       21.2674984      -12.09510200    0.00000000
                                      S - D
                                                     0      162.1686097        3.00000000    0.00000000
                                                     1      176.5333232       22.02536180    0.00000000
                                                     2       68.9562010      443.01810880    0.00000000
                                                     2       13.5792838      145.56964110    0.00000000
                                      P - D
                                                     0       69.0181506        5.00000000    0.00000000
                                                     1      275.5955596        4.98828240    0.00000000
                                                     2       47.1315453      256.69458530    0.00000000
                                                     2       12.9874075       78.47544500    0.00000000
   20          6
                                   No pseudopotential on this center.
   21          6
                                   No pseudopotential on this center.
   22          6
                                   No pseudopotential on this center.
   23          1
                                   No pseudopotential on this center.
   24          6
                                   No pseudopotential on this center.
   25          1
                                   No pseudopotential on this center.
   26          6
                                   No pseudopotential on this center.
   27          1
                                   No pseudopotential on this center.
   28          6
                                   No pseudopotential on this center.
   29          1
                                   No pseudopotential on this center.
   30          1
                                   No pseudopotential on this center.
   31          6
                                   No pseudopotential on this center.
   32          1
                                   No pseudopotential on this center.
   33          1
                                   No pseudopotential on this center.
   34          6
                                   No pseudopotential on this center.
   35          1
                                   No pseudopotential on this center.
   36          1
                                   No pseudopotential on this center.
   37          6
                                   No pseudopotential on this center.
   38          1
                                   No pseudopotential on this center.
   39          6
                                   No pseudopotential on this center.
   40          1
                                   No pseudopotential on this center.
   41          8
                                   No pseudopotential on this center.
   42          8
                                   No pseudopotential on this center.
   43         28           18
                                      D and up 
                                                     1      469.9324331      -10.00000000    0.00000000
                                                     2       85.4236411      -69.40848050    0.00000000
                                                     2       21.2674984      -12.09510200    0.00000000
                                      S - D
                                                     0      162.1686097        3.00000000    0.00000000
                                                     1      176.5333232       22.02536180    0.00000000
                                                     2       68.9562010      443.01810880    0.00000000
                                                     2       13.5792838      145.56964110    0.00000000
                                      P - D
                                                     0       69.0181506        5.00000000    0.00000000
                                                     1      275.5955596        4.98828240    0.00000000
                                                     2       47.1315453      256.69458530    0.00000000
                                                     2       12.9874075       78.47544500    0.00000000
   44         17
                                   No pseudopotential on this center.
   45          6
                                   No pseudopotential on this center.
   46          6
                                   No pseudopotential on this center.
   47          1
                                   No pseudopotential on this center.
   48          1
                                   No pseudopotential on this center.
   49          1
                                   No pseudopotential on this center.
   50          6
                                   No pseudopotential on this center.
   51          1
                                   No pseudopotential on this center.
   52          1
                                   No pseudopotential on this center.
   53          1
                                   No pseudopotential on this center.
   54          6
                                   No pseudopotential on this center.
   55          1
                                   No pseudopotential on this center.
   56          1
                                   No pseudopotential on this center.
   57          1
                                   No pseudopotential on this center.
   58          6
                                   No pseudopotential on this center.
   59          6
                                   No pseudopotential on this center.
   60          1
                                   No pseudopotential on this center.
   61          1
                                   No pseudopotential on this center.
   62          1
                                   No pseudopotential on this center.
   63          6
                                   No pseudopotential on this center.
   64          1
                                   No pseudopotential on this center.
   65          1
                                   No pseudopotential on this center.
   66          1
                                   No pseudopotential on this center.
   67          6
                                   No pseudopotential on this center.
   68          1
                                   No pseudopotential on this center.
   69          1
                                   No pseudopotential on this center.
   70          1
                                   No pseudopotential on this center.
   71          6
                                   No pseudopotential on this center.
   72          6
                                   No pseudopotential on this center.
   73          6
                                   No pseudopotential on this center.
   74          6
                                   No pseudopotential on this center.
   75          1
                                   No pseudopotential on this center.
   76          6
                                   No pseudopotential on this center.
   77          1
                                   No pseudopotential on this center.
   78          6
                                   No pseudopotential on this center.
   79          1
                                   No pseudopotential on this center.
   80          1
                                   No pseudopotential on this center.
   81          6
                                   No pseudopotential on this center.
   82          1
                                   No pseudopotential on this center.
   83          1
                                   No pseudopotential on this center.
   84          1
                                   No pseudopotential on this center.
   85          8
                                   No pseudopotential on this center.
   86          1
                                   No pseudopotential on this center.
   87          6
                                   No pseudopotential on this center.
   88          6
                                   No pseudopotential on this center.
   89          6
                                   No pseudopotential on this center.
   90          6
                                   No pseudopotential on this center.
   91          1
                                   No pseudopotential on this center.
   92          6
                                   No pseudopotential on this center.
   93          1
                                   No pseudopotential on this center.
   94          6
                                   No pseudopotential on this center.
   95          1
                                   No pseudopotential on this center.
   96          1
                                   No pseudopotential on this center.
   97          1
                                   No pseudopotential on this center.
 ======================================================================================================
 There are  2094 symmetry adapted cartesian basis functions of A   symmetry.
 There are  1845 symmetry adapted basis functions of A   symmetry.
  1845 basis functions,  2989 primitive gaussians,  2094 cartesian basis functions
   199 alpha electrons      198 beta electrons
       nuclear repulsion energy      8330.6888889523 Hartrees.
 NAtoms=   97 NActive=   97 NUniq=   97 SFac= 1.00D+00 NAtFMM=   60 NAOKFM=T Big=T
 Integral buffers will be    131072 words long.
 Raffenetti 2 integral format.
 Two-electron integral symmetry is turned on.
 Using the following non-standard input for PCM:
 Eps=4.5
 --- end of non-standard input.
 ------------------------------------------------------------------------------
 Polarizable Continuum Model (PCM)
 =================================
 Model                : PCM.
 Atomic radii         : UFF (Universal Force Field).
 Polarization charges : Total charges.
 Charge compensation  : None.
 Solution method      : On-the-fly selection.
 Cavity type          : Scaled VdW (van der Waals Surface) (Alpha=1.100).
 Cavity algorithm     : GePol (No added spheres)
                        Default sphere list used, NSphG=   97.
                        Lebedev-Laikov grids with approx.  5.0 points / Ang**2.
                        Smoothing algorithm: York/Karplus (Gamma=1.0000).
                        Polarization charges: spherical gaussians, with
                                              point-specific exponents (IZeta= 3).
                        Self-potential: point-specific (ISelfS= 7).
                        Self-field    : sphere-specific E.n sum rule (ISelfD= 2).
 Solvent              : Water, Eps=   4.500000 Eps(inf)=   1.777849
 ------------------------------------------------------------------------------
 One-electron integrals computed using PRISM.
   1 Symmetry operations used in ECPInt.
 ECPInt:  NShTT=  274911 NPrTT=  843013 LenC2=  198359 LenP2D=  397768.
 LDataN:  DoStor=T MaxTD1= 6 Len=  172
 NBasis=  1845 RedAO= T EigKep=  6.83D-06  NBF=  1845
 NBsUse=  1845 1.00D-06 EigRej= -1.00D+00 NBFU=  1845
 ExpMin= 2.40D-02 ExpMax= 6.95D+04 ExpMxC= 2.37D+03 IAcc=3 IRadAn=         5 AccDes= 0.00D+00
 Harris functional with IExCor= 1009 and IRadAn=       5 diagonalized for initial guess.
 HarFok:  IExCor= 1009 AccDes= 0.00D+00 IRadAn=         5 IDoV= 1 UseB2=F ITyADJ=14
 ICtDFT=  3500011 ScaDFX=  1.000000  1.000000  1.000000  1.000000
 FoFCou: FMM=F IPFlag=           0 FMFlag=      100000 FMFlg1=        2001
         NFxFlg=           0 DoJE=T BraDBF=F KetDBF=T FulRan=T
         wScrn=  0.000000 ICntrl=       500 IOpCl=  0 I1Cent=   200000004 NGrid=           0
         NMat0=    1 NMatS0=      1 NMatT0=    0 NMatD0=    1 NMtDS0=    0 NMtDT0=    0
 Petite list used in FoFCou.
 Initial guess <Sx>= 0.0000 <Sy>= 0.0000 <Sz>= 0.5000 <S**2>= 0.7500 S= 0.5000
 Requested convergence on RMS density matrix=1.00D-08 within 128 cycles.
 Requested convergence on MAX density matrix=1.00D-06.
 Requested convergence on             energy=1.00D-06.
 No special actions if energy rises.
 Inv3:  Mode=1 IEnd=   107388867.
 Iteration    1 A*A^-1 deviation from unit magnitude is 5.33D-15 for   3709.
 Iteration    1 A*A^-1 deviation from orthogonality  is 2.44D-15 for   3904   1775.
 Iteration    1 A^-1*A deviation from unit magnitude is 4.88D-15 for   3709.
 Iteration    1 A^-1*A deviation from orthogonality  is 1.74D-14 for   5260   5226.
 EnCoef did   100 forward-backward iterations
 EnCoef did   100 forward-backward iterations
 EnCoef did    20 forward-backward iterations
 EnCoef did     4 forward-backward iterations
 EnCoef did     2 forward-backward iterations
 EnCoef did   100 forward-backward iterations
 EnCoef did   100 forward-backward iterations
 EnCoef did     5 forward-backward iterations
 Restarting incremental Fock formation.
 Error on total polarization charges =  0.01854
 SCF Done:  E(UM06L) =  -2834.17720451     A.U. after   35 cycles
            NFock= 35  Conv=0.34D-08     -V/T= 2.0518
 <Sx>= 0.0000 <Sy>= 0.0000 <Sz>= 0.5000 <S**2>= 0.7702 S= 0.5101
 <L.S>=  0.00000000000    
 Annihilation of the first spin contaminant:
 S**2 before annihilation     0.7702,   after     0.7503

 **********************************************************************

            Population analysis using the SCF Density.

 **********************************************************************

 Orbital symmetries:
 Alpha Orbitals:
       Occupied  (A) (A) (A) (A) (A) (A) (A) (A) (A) (A) (A) (A)
                 (A) (A) (A) (A) (A) (A) (A) (A) (A) (A) (A) (A)
                 (A) (A) (A) (A) (A) (A) (A) (A) (A) (A) (A) (A)
                 (A) (A) (A) (A) (A) (A) (A) (A) (A) (A) (A) (A)
                 (A) (A) (A) (A) (A) (A) (A) (A) (A) (A) (A) (A)
                 (A) (A) (A) (A) (A) (A) (A) (A) (A) (A) (A) (A)
                 (A) (A) (A) (A) (A) (A) (A) (A) (A) (A) (A) (A)
                 (A) (A) (A) (A) (A) (A) (A) (A) (A) (A) (A) (A)
                 (A) (A) (A) (A) (A) (A) (A) (A) (A) (A) (A) (A)
                 (A) (A) (A) (A) (A) (A) (A) (A) (A) (A) (A) (A)
                 (A) (A) (A) (A) (A) (A) (A) (A) (A) (A) (A) (A)
                 (A) (A) (A) (A) (A) (A) (A) (A) (A) (A) (A) (A)
                 (A) (A) (A) (A) (A) (A) (A) (A) (A) (A) (A) (A)
                 (A) (A) (A) (A) (A) (A) (A) (A) (A) (A) (A) (A)
                 (A) (A) (A) (A) (A) (A) (A) (A) (A) (A) (A) (A)
                 (A) (A) (A) (A) (A) (A) (A) (A) (A) (A) (A) (A)
                 (A) (A) (A) (A) (A) (A) (A)
       Virtual   (A) (A) (A) (A) (A) (A) (A) (A) (A) (A) (A) (A)
                 (A) (A) (A) (A) (A) (A) (A) (A) (A) (A) (A) (A)
                 (A) (A) (A) (A) (A) (A) (A) (A) (A) (A) (A) (A)
                 (A) (A) (A) (A) (A) (A) (A) (A) (A) (A) (A) (A)
                 (A) (A) (A) (A) (A) (A) (A) (A) (A) (A) (A) (A)
                 (A) (A) (A) (A) (A) (A) (A) (A) (A) (A) (A) (A)
                 (A) (A) (A) (A) (A) (A) (A) (A) (A) (A) (A) (A)
                 (A) (A) (A) (A) (A) (A) (A) (A) (A) (A) (A) (A)
                 (A) (A) (A) (A) (A) (A) (A) (A) (A) (A) (A) (A)
                 (A) (A) (A) (A) (A) (A) (A) (A) (A) (A) (A) (A)
                 (A) (A) (A) (A) (A) (A) (A) (A) (A) (A) (A) (A)
                 (A) (A) (A) (A) (A) (A) (A) (A) (A) (A) (A) (A)
                 (A) (A) (A) (A) (A) (A) (A) (A) (A) (A) (A) (A)
                 (A) (A) (A) (A) (A) (A) (A) (A) (A) (A) (A) (A)
                 (A) (A) (A) (A) (A) (A) (A) (A) (A) (A) (A) (A)
                 (A) (A) (A) (A) (A) (A) (A) (A) (A) (A) (A) (A)
                 (A) (A) (A) (A) (A) (A) (A) (A) (A) (A) (A) (A)
                 (A) (A) (A) (A) (A) (A) (A) (A) (A) (A) (A) (A)
                 (A) (A) (A) (A) (A) (A) (A) (A) (A) (A) (A) (A)
                 (A) (A) (A) (A) (A) (A) (A) (A) (A) (A) (A) (A)
                 (A) (A) (A) (A) (A) (A) (A) (A) (A) (A) (A) (A)
                 (A) (A) (A) (A) (A) (A) (A) (A) (A) (A) (A) (A)
                 (A) (A) (A) (A) (A) (A) (A) (A) (A) (A) (A) (A)
                 (A) (A) (A) (A) (A) (A) (A) (A) (A) (A) (A) (A)
                 (A) (A) (A) (A) (A) (A) (A) (A) (A) (A) (A) (A)
                 (A) (A) (A) (A) (A) (A) (A) (A) (A) (A) (A) (A)
                 (A) (A) (A) (A) (A) (A) (A) (A) (A) (A) (A) (A)
                 (A) (A) (A) (A) (A) (A) (A) (A) (A) (A) (A) (A)
                 (A) (A) (A) (A) (A) (A) (A) (A) (A) (A) (A) (A)
                 (A) (A) (A) (A) (A) (A) (A) (A) (A) (A) (A) (A)
                 (A) (A) (A) (A) (A) (A) (A) (A) (A) (A) (A) (A)
                 (A) (A) (A) (A) (A) (A) (A) (A) (A) (A) (A) (A)
                 (A) (A) (A) (A) (A) (A) (A) (A) (A) (A) (A) (A)
                 (A) (A) (A) (A) (A) (A) (A) (A) (A) (A) (A) (A)
                 (A) (A) (A) (A) (A) (A) (A) (A) (A) (A) (A) (A)
                 (A) (A) (A) (A) (A) (A) (A) (A) (A) (A) (A) (A)
                 (A) (A) (A) (A) (A) (A) (A) (A) (A) (A) (A) (A)
                 (A) (A) (A) (A) (A) (A) (A) (A) (A) (A) (A) (A)
                 (A) (A) (A) (A) (A) (A) (A) (A) (A) (A) (A) (A)
                 (A) (A) (A) (A) (A) (A) (A) (A) (A) (A) (A) (A)
                 (A) (A) (A) (A) (A) (A) (A) (A) (A) (A) (A) (A)
                 (A) (A) (A) (A) (A) (A) (A) (A) (A) (A) (A) (A)
                 (A) (A) (A) (A) (A) (A) (A) (A) (A) (A) (A) (A)
                 (A) (A) (A) (A) (A) (A) (A) (A) (A) (A) (A) (A)
                 (A) (A) (A) (A) (A) (A) (A) (A) (A) (A) (A) (A)
                 (A) (A) (A) (A) (A) (A) (A) (A) (A) (A) (A) (A)
                 (A) (A) (A) (A) (A) (A) (A) (A) (A) (A) (A) (A)
                 (A) (A) (A) (A) (A) (A) (A) (A) (A) (A) (A) (A)
                 (A) (A) (A) (A) (A) (A) (A) (A) (A) (A) (A) (A)
                 (A) (A) (A) (A) (A) (A) (A) (A) (A) (A) (A) (A)
                 (A) (A) (A) (A) (A) (A) (A) (A) (A) (A) (A) (A)
                 (A) (A) (A) (A) (A) (A) (A) (A) (A) (A) (A) (A)
                 (A) (A) (A) (A) (A) (A) (A) (A) (A) (A) (A) (A)
                 (A) (A) (A) (A) (A) (A) (A) (A) (A) (A) (A) (A)
                 (A) (A) (A) (A) (A) (A) (A) (A) (A) (A) (A) (A)
                 (A) (A) (A) (A) (A) (A) (A) (A) (A) (A) (A) (A)
                 (A) (A) (A) (A) (A) (A) (A) (A) (A) (A) (A) (A)
                 (A) (A) (A) (A) (A) (A) (A) (A) (A) (A) (A) (A)
                 (A) (A) (A) (A) (A) (A) (A) (A) (A) (A) (A) (A)
                 (A) (A) (A) (A) (A) (A) (A) (A) (A) (A) (A) (A)
                 (A) (A) (A) (A) (A) (A) (A) (A) (A) (A) (A) (A)
                 (A) (A) (A) (A) (A) (A) (A) (A) (A) (A) (A) (A)
                 (A) (A) (A) (A) (A) (A) (A) (A) (A) (A) (A) (A)
                 (A) (A) (A) (A) (A) (A) (A) (A) (A) (A) (A) (A)
                 (A) (A) (A) (A) (A) (A) (A) (A) (A) (A) (A) (A)
                 (A) (A) (A) (A) (A) (A) (A) (A) (A) (A) (A) (A)
                 (A) (A) (A) (A) (A) (A) (A) (A) (A) (A) (A) (A)
                 (A) (A) (A) (A) (A) (A) (A) (A) (A) (A) (A) (A)
                 (A) (A) (A) (A) (A) (A) (A) (A) (A) (A) (A) (A)
                 (A) (A) (A) (A) (A) (A) (A) (A) (A) (A) (A) (A)
                 (A) (A) (A) (A) (A) (A) (A) (A) (A) (A) (A) (A)
                 (A) (A) (A) (A) (A) (A) (A) (A) (A) (A) (A) (A)
                 (A) (A) (A) (A) (A) (A) (A) (A) (A) (A) (A) (A)
                 (A) (A) (A) (A) (A) (A) (A) (A) (A) (A) (A) (A)
                 (A) (A) (A) (A) (A) (A) (A) (A) (A) (A) (A) (A)
                 (A) (A) (A) (A) (A) (A) (A) (A) (A) (A) (A) (A)
                 (A) (A) (A) (A) (A) (A) (A) (A) (A) (A) (A) (A)
                 (A) (A) (A) (A) (A) (A) (A) (A) (A) (A) (A) (A)
                 (A) (A) (A) (A) (A) (A) (A) (A) (A) (A) (A) (A)
                 (A) (A) (A) (A) (A) (A) (A) (A) (A) (A) (A) (A)
                 (A) (A) (A) (A) (A) (A) (A) (A) (A) (A) (A) (A)
                 (A) (A) (A) (A) (A) (A) (A) (A) (A) (A) (A) (A)
                 (A) (A) (A) (A) (A) (A) (A) (A) (A) (A) (A) (A)
                 (A) (A) (A) (A) (A) (A) (A) (A) (A) (A) (A) (A)
                 (A) (A) (A) (A) (A) (A) (A) (A) (A) (A) (A) (A)
                 (A) (A) (A) (A) (A) (A) (A) (A) (A) (A) (A) (A)
                 (A) (A) (A) (A) (A) (A) (A) (A) (A) (A) (A) (A)
                 (A) (A) (A) (A) (A) (A) (A) (A) (A) (A) (A) (A)
                 (A) (A) (A) (A) (A) (A) (A) (A) (A) (A) (A) (A)
                 (A) (A) (A) (A) (A) (A) (A) (A) (A) (A) (A) (A)
                 (A) (A) (A) (A) (A) (A) (A) (A) (A) (A) (A) (A)
                 (A) (A) (A) (A) (A) (A) (A) (A) (A) (A) (A) (A)
                 (A) (A) (A) (A) (A) (A) (A) (A) (A) (A) (A) (A)
                 (A) (A) (A) (A) (A) (A) (A) (A) (A) (A) (A) (A)
                 (A) (A) (A) (A) (A) (A) (A) (A) (A) (A) (A) (A)
                 (A) (A) (A) (A) (A) (A) (A) (A) (A) (A) (A) (A)
                 (A) (A) (A) (A) (A) (A) (A) (A) (A) (A) (A) (A)
                 (A) (A) (A) (A) (A) (A) (A) (A) (A) (A) (A) (A)
                 (A) (A) (A) (A) (A) (A) (A) (A) (A) (A) (A) (A)
                 (A) (A) (A) (A) (A) (A) (A) (A) (A) (A) (A) (A)
                 (A) (A) (A) (A) (A) (A) (A) (A) (A) (A) (A) (A)
                 (A) (A) (A) (A) (A) (A) (A) (A) (A) (A) (A) (A)
                 (A) (A) (A) (A) (A) (A) (A) (A) (A) (A) (A) (A)
                 (A) (A) (A) (A) (A) (A) (A) (A) (A) (A) (A) (A)
                 (A) (A) (A) (A) (A) (A) (A) (A) (A) (A) (A) (A)
                 (A) (A) (A) (A) (A) (A) (A) (A) (A) (A) (A) (A)
                 (A) (A) (A) (A) (A) (A) (A) (A) (A) (A) (A) (A)
                 (A) (A) (A) (A) (A) (A) (A) (A) (A) (A) (A) (A)
                 (A) (A) (A) (A) (A) (A) (A) (A) (A) (A) (A) (A)
                 (A) (A) (A) (A) (A) (A) (A) (A) (A) (A) (A) (A)
                 (A) (A) (A) (A) (A) (A) (A) (A) (A) (A) (A) (A)
                 (A) (A) (A) (A) (A) (A) (A) (A) (A) (A) (A) (A)
                 (A) (A) (A) (A) (A) (A) (A) (A) (A) (A) (A) (A)
                 (A) (A) (A) (A) (A) (A) (A) (A) (A) (A) (A) (A)
                 (A) (A) (A) (A) (A) (A) (A) (A) (A) (A) (A) (A)
                 (A) (A) (A) (A) (A) (A) (A) (A) (A) (A) (A) (A)
                 (A) (A) (A) (A) (A) (A) (A) (A) (A) (A) (A) (A)
                 (A) (A) (A) (A) (A) (A) (A) (A) (A) (A) (A) (A)
                 (A) (A) (A) (A) (A) (A) (A) (A) (A) (A) (A) (A)
                 (A) (A) (A) (A) (A) (A) (A) (A) (A) (A) (A) (A)
                 (A) (A) (A) (A) (A) (A) (A) (A) (A) (A) (A) (A)
                 (A) (A) (A) (A) (A) (A) (A) (A) (A) (A) (A) (A)
                 (A) (A) (A) (A) (A) (A) (A) (A) (A) (A) (A) (A)
                 (A) (A) (A) (A) (A) (A) (A) (A) (A) (A) (A) (A)
                 (A) (A) (A) (A) (A) (A) (A) (A) (A) (A) (A) (A)
                 (A) (A) (A) (A) (A) (A) (A) (A) (A) (A) (A) (A)
                 (A) (A) (A) (A) (A) (A) (A) (A) (A) (A) (A) (A)
                 (A) (A) (A) (A) (A) (A) (A) (A) (A) (A) (A) (A)
                 (A) (A) (A) (A) (A) (A) (A) (A) (A) (A) (A) (A)
                 (A) (A) (A) (A) (A) (A) (A) (A) (A) (A) (A) (A)
                 (A) (A) (A) (A) (A) (A) (A) (A) (A) (A) (A) (A)
                 (A) (A) (A) (A) (A) (A) (A) (A) (A) (A) (A) (A)
                 (A) (A) (A) (A) (A) (A) (A) (A) (A) (A) (A) (A)
                 (A) (A) (A) (A) (A) (A) (A) (A) (A) (A) (A) (A)
                 (A) (A) (A) (A) (A) (A) (A) (A) (A) (A) (A) (A)
                 (A) (A) (A) (A) (A) (A) (A) (A) (A) (A) (A) (A)
                 (A) (A) (A) (A) (A) (A) (A) (A) (A) (A) (A) (A)
                 (A) (A)
 Beta  Orbitals:
       Occupied  (A) (A) (A) (A) (A) (A) (A) (A) (A) (A) (A) (A)
                 (A) (A) (A) (A) (A) (A) (A) (A) (A) (A) (A) (A)
                 (A) (A) (A) (A) (A) (A) (A) (A) (A) (A) (A) (A)
                 (A) (A) (A) (A) (A) (A) (A) (A) (A) (A) (A) (A)
                 (A) (A) (A) (A) (A) (A) (A) (A) (A) (A) (A) (A)
                 (A) (A) (A) (A) (A) (A) (A) (A) (A) (A) (A) (A)
                 (A) (A) (A) (A) (A) (A) (A) (A) (A) (A) (A) (A)
                 (A) (A) (A) (A) (A) (A) (A) (A) (A) (A) (A) (A)
                 (A) (A) (A) (A) (A) (A) (A) (A) (A) (A) (A) (A)
                 (A) (A) (A) (A) (A) (A) (A) (A) (A) (A) (A) (A)
                 (A) (A) (A) (A) (A) (A) (A) (A) (A) (A) (A) (A)
                 (A) (A) (A) (A) (A) (A) (A) (A) (A) (A) (A) (A)
                 (A) (A) (A) (A) (A) (A) (A) (A) (A) (A) (A) (A)
                 (A) (A) (A) (A) (A) (A) (A) (A) (A) (A) (A) (A)
                 (A) (A) (A) (A) (A) (A) (A) (A) (A) (A) (A) (A)
                 (A) (A) (A) (A) (A) (A) (A) (A) (A) (A) (A) (A)
                 (A) (A) (A) (A) (A) (A)
       Virtual   (A) (A) (A) (A) (A) (A) (A) (A) (A) (A) (A) (A)
                 (A) (A) (A) (A) (A) (A) (A) (A) (A) (A) (A) (A)
                 (A) (A) (A) (A) (A) (A) (A) (A) (A) (A) (A) (A)
                 (A) (A) (A) (A) (A) (A) (A) (A) (A) (A) (A) (A)
                 (A) (A) (A) (A) (A) (A) (A) (A) (A) (A) (A) (A)
                 (A) (A) (A) (A) (A) (A) (A) (A) (A) (A) (A) (A)
                 (A) (A) (A) (A) (A) (A) (A) (A) (A) (A) (A) (A)
                 (A) (A) (A) (A) (A) (A) (A) (A) (A) (A) (A) (A)
                 (A) (A) (A) (A) (A) (A) (A) (A) (A) (A) (A) (A)
                 (A) (A) (A) (A) (A) (A) (A) (A) (A) (A) (A) (A)
                 (A) (A) (A) (A) (A) (A) (A) (A) (A) (A) (A) (A)
                 (A) (A) (A) (A) (A) (A) (A) (A) (A) (A) (A) (A)
                 (A) (A) (A) (A) (A) (A) (A) (A) (A) (A) (A) (A)
                 (A) (A) (A) (A) (A) (A) (A) (A) (A) (A) (A) (A)
                 (A) (A) (A) (A) (A) (A) (A) (A) (A) (A) (A) (A)
                 (A) (A) (A) (A) (A) (A) (A) (A) (A) (A) (A) (A)
                 (A) (A) (A) (A) (A) (A) (A) (A) (A) (A) (A) (A)
                 (A) (A) (A) (A) (A) (A) (A) (A) (A) (A) (A) (A)
                 (A) (A) (A) (A) (A) (A) (A) (A) (A) (A) (A) (A)
                 (A) (A) (A) (A) (A) (A) (A) (A) (A) (A) (A) (A)
                 (A) (A) (A) (A) (A) (A) (A) (A) (A) (A) (A) (A)
                 (A) (A) (A) (A) (A) (A) (A) (A) (A) (A) (A) (A)
                 (A) (A) (A) (A) (A) (A) (A) (A) (A) (A) (A) (A)
                 (A) (A) (A) (A) (A) (A) (A) (A) (A) (A) (A) (A)
                 (A) (A) (A) (A) (A) (A) (A) (A) (A) (A) (A) (A)
                 (A) (A) (A) (A) (A) (A) (A) (A) (A) (A) (A) (A)
                 (A) (A) (A) (A) (A) (A) (A) (A) (A) (A) (A) (A)
                 (A) (A) (A) (A) (A) (A) (A) (A) (A) (A) (A) (A)
                 (A) (A) (A) (A) (A) (A) (A) (A) (A) (A) (A) (A)
                 (A) (A) (A) (A) (A) (A) (A) (A) (A) (A) (A) (A)
                 (A) (A) (A) (A) (A) (A) (A) (A) (A) (A) (A) (A)
                 (A) (A) (A) (A) (A) (A) (A) (A) (A) (A) (A) (A)
                 (A) (A) (A) (A) (A) (A) (A) (A) (A) (A) (A) (A)
                 (A) (A) (A) (A) (A) (A) (A) (A) (A) (A) (A) (A)
                 (A) (A) (A) (A) (A) (A) (A) (A) (A) (A) (A) (A)
                 (A) (A) (A) (A) (A) (A) (A) (A) (A) (A) (A) (A)
                 (A) (A) (A) (A) (A) (A) (A) (A) (A) (A) (A) (A)
                 (A) (A) (A) (A) (A) (A) (A) (A) (A) (A) (A) (A)
                 (A) (A) (A) (A) (A) (A) (A) (A) (A) (A) (A) (A)
                 (A) (A) (A) (A) (A) (A) (A) (A) (A) (A) (A) (A)
                 (A) (A) (A) (A) (A) (A) (A) (A) (A) (A) (A) (A)
                 (A) (A) (A) (A) (A) (A) (A) (A) (A) (A) (A) (A)
                 (A) (A) (A) (A) (A) (A) (A) (A) (A) (A) (A) (A)
                 (A) (A) (A) (A) (A) (A) (A) (A) (A) (A) (A) (A)
                 (A) (A) (A) (A) (A) (A) (A) (A) (A) (A) (A) (A)
                 (A) (A) (A) (A) (A) (A) (A) (A) (A) (A) (A) (A)
                 (A) (A) (A) (A) (A) (A) (A) (A) (A) (A) (A) (A)
                 (A) (A) (A) (A) (A) (A) (A) (A) (A) (A) (A) (A)
                 (A) (A) (A) (A) (A) (A) (A) (A) (A) (A) (A) (A)
                 (A) (A) (A) (A) (A) (A) (A) (A) (A) (A) (A) (A)
                 (A) (A) (A) (A) (A) (A) (A) (A) (A) (A) (A) (A)
                 (A) (A) (A) (A) (A) (A) (A) (A) (A) (A) (A) (A)
                 (A) (A) (A) (A) (A) (A) (A) (A) (A) (A) (A) (A)
                 (A) (A) (A) (A) (A) (A) (A) (A) (A) (A) (A) (A)
                 (A) (A) (A) (A) (A) (A) (A) (A) (A) (A) (A) (A)
                 (A) (A) (A) (A) (A) (A) (A) (A) (A) (A) (A) (A)
                 (A) (A) (A) (A) (A) (A) (A) (A) (A) (A) (A) (A)
                 (A) (A) (A) (A) (A) (A) (A) (A) (A) (A) (A) (A)
                 (A) (A) (A) (A) (A) (A) (A) (A) (A) (A) (A) (A)
                 (A) (A) (A) (A) (A) (A) (A) (A) (A) (A) (A) (A)
                 (A) (A) (A) (A) (A) (A) (A) (A) (A) (A) (A) (A)
                 (A) (A) (A) (A) (A) (A) (A) (A) (A) (A) (A) (A)
                 (A) (A) (A) (A) (A) (A) (A) (A) (A) (A) (A) (A)
                 (A) (A) (A) (A) (A) (A) (A) (A) (A) (A) (A) (A)
                 (A) (A) (A) (A) (A) (A) (A) (A) (A) (A) (A) (A)
                 (A) (A) (A) (A) (A) (A) (A) (A) (A) (A) (A) (A)
                 (A) (A) (A) (A) (A) (A) (A) (A) (A) (A) (A) (A)
                 (A) (A) (A) (A) (A) (A) (A) (A) (A) (A) (A) (A)
                 (A) (A) (A) (A) (A) (A) (A) (A) (A) (A) (A) (A)
                 (A) (A) (A) (A) (A) (A) (A) (A) (A) (A) (A) (A)
                 (A) (A) (A) (A) (A) (A) (A) (A) (A) (A) (A) (A)
                 (A) (A) (A) (A) (A) (A) (A) (A) (A) (A) (A) (A)
                 (A) (A) (A) (A) (A) (A) (A) (A) (A) (A) (A) (A)
                 (A) (A) (A) (A) (A) (A) (A) (A) (A) (A) (A) (A)
                 (A) (A) (A) (A) (A) (A) (A) (A) (A) (A) (A) (A)
                 (A) (A) (A) (A) (A) (A) (A) (A) (A) (A) (A) (A)
                 (A) (A) (A) (A) (A) (A) (A) (A) (A) (A) (A) (A)
                 (A) (A) (A) (A) (A) (A) (A) (A) (A) (A) (A) (A)
                 (A) (A) (A) (A) (A) (A) (A) (A) (A) (A) (A) (A)
                 (A) (A) (A) (A) (A) (A) (A) (A) (A) (A) (A) (A)
                 (A) (A) (A) (A) (A) (A) (A) (A) (A) (A) (A) (A)
                 (A) (A) (A) (A) (A) (A) (A) (A) (A) (A) (A) (A)
                 (A) (A) (A) (A) (A) (A) (A) (A) (A) (A) (A) (A)
                 (A) (A) (A) (A) (A) (A) (A) (A) (A) (A) (A) (A)
                 (A) (A) (A) (A) (A) (A) (A) (A) (A) (A) (A) (A)
                 (A) (A) (A) (A) (A) (A) (A) (A) (A) (A) (A) (A)
                 (A) (A) (A) (A) (A) (A) (A) (A) (A) (A) (A) (A)
                 (A) (A) (A) (A) (A) (A) (A) (A) (A) (A) (A) (A)
                 (A) (A) (A) (A) (A) (A) (A) (A) (A) (A) (A) (A)
                 (A) (A) (A) (A) (A) (A) (A) (A) (A) (A) (A) (A)
                 (A) (A) (A) (A) (A) (A) (A) (A) (A) (A) (A) (A)
                 (A) (A) (A) (A) (A) (A) (A) (A) (A) (A) (A) (A)
                 (A) (A) (A) (A) (A) (A) (A) (A) (A) (A) (A) (A)
                 (A) (A) (A) (A) (A) (A) (A) (A) (A) (A) (A) (A)
                 (A) (A) (A) (A) (A) (A) (A) (A) (A) (A) (A) (A)
                 (A) (A) (A) (A) (A) (A) (A) (A) (A) (A) (A) (A)
                 (A) (A) (A) (A) (A) (A) (A) (A) (A) (A) (A) (A)
                 (A) (A) (A) (A) (A) (A) (A) (A) (A) (A) (A) (A)
                 (A) (A) (A) (A) (A) (A) (A) (A) (A) (A) (A) (A)
                 (A) (A) (A) (A) (A) (A) (A) (A) (A) (A) (A) (A)
                 (A) (A) (A) (A) (A) (A) (A) (A) (A) (A) (A) (A)
                 (A) (A) (A) (A) (A) (A) (A) (A) (A) (A) (A) (A)
                 (A) (A) (A) (A) (A) (A) (A) (A) (A) (A) (A) (A)
                 (A) (A) (A) (A) (A) (A) (A) (A) (A) (A) (A) (A)
                 (A) (A) (A) (A) (A) (A) (A) (A) (A) (A) (A) (A)
                 (A) (A) (A) (A) (A) (A) (A) (A) (A) (A) (A) (A)
                 (A) (A) (A) (A) (A) (A) (A) (A) (A) (A) (A) (A)
                 (A) (A) (A) (A) (A) (A) (A) (A) (A) (A) (A) (A)
                 (A) (A) (A) (A) (A) (A) (A) (A) (A) (A) (A) (A)
                 (A) (A) (A) (A) (A) (A) (A) (A) (A) (A) (A) (A)
                 (A) (A) (A) (A) (A) (A) (A) (A) (A) (A) (A) (A)
                 (A) (A) (A) (A) (A) (A) (A) (A) (A) (A) (A) (A)
                 (A) (A) (A) (A) (A) (A) (A) (A) (A) (A) (A) (A)
                 (A) (A) (A) (A) (A) (A) (A) (A) (A) (A) (A) (A)
                 (A) (A) (A) (A) (A) (A) (A) (A) (A) (A) (A) (A)
                 (A) (A) (A) (A) (A) (A) (A) (A) (A) (A) (A) (A)
                 (A) (A) (A) (A) (A) (A) (A) (A) (A) (A) (A) (A)
                 (A) (A) (A) (A) (A) (A) (A) (A) (A) (A) (A) (A)
                 (A) (A) (A) (A) (A) (A) (A) (A) (A) (A) (A) (A)
                 (A) (A) (A) (A) (A) (A) (A) (A) (A) (A) (A) (A)
                 (A) (A) (A) (A) (A) (A) (A) (A) (A) (A) (A) (A)
                 (A) (A) (A) (A) (A) (A) (A) (A) (A) (A) (A) (A)
                 (A) (A) (A) (A) (A) (A) (A) (A) (A) (A) (A) (A)
                 (A) (A) (A) (A) (A) (A) (A) (A) (A) (A) (A) (A)
                 (A) (A) (A) (A) (A) (A) (A) (A) (A) (A) (A) (A)
                 (A) (A) (A) (A) (A) (A) (A) (A) (A) (A) (A) (A)
                 (A) (A) (A) (A) (A) (A) (A) (A) (A) (A) (A) (A)
                 (A) (A) (A) (A) (A) (A) (A) (A) (A) (A) (A) (A)
                 (A) (A) (A) (A) (A) (A) (A) (A) (A) (A) (A) (A)
                 (A) (A) (A) (A) (A) (A) (A) (A) (A) (A) (A) (A)
                 (A) (A) (A) (A) (A) (A) (A) (A) (A) (A) (A) (A)
                 (A) (A) (A) (A) (A) (A) (A) (A) (A) (A) (A) (A)
                 (A) (A) (A) (A) (A) (A) (A) (A) (A) (A) (A) (A)
                 (A) (A) (A) (A) (A) (A) (A) (A) (A) (A) (A) (A)
                 (A) (A) (A) (A) (A) (A) (A) (A) (A) (A) (A) (A)
                 (A) (A) (A) (A) (A) (A) (A) (A) (A) (A) (A) (A)
                 (A) (A) (A) (A) (A) (A) (A) (A) (A) (A) (A) (A)
                 (A) (A) (A)
 The electronic state is 2-A.
 Alpha  occ. eigenvalues -- -101.08775 -19.02147 -19.00504 -19.00501 -14.20593
 Alpha  occ. eigenvalues --  -14.20294 -14.18329 -14.15830 -10.15251 -10.14184
 Alpha  occ. eigenvalues --  -10.13981 -10.12071 -10.11633 -10.11025 -10.10825
 Alpha  occ. eigenvalues --  -10.10795 -10.10415 -10.09741 -10.08642 -10.08628
 Alpha  occ. eigenvalues --  -10.08470 -10.08345 -10.07760 -10.07536 -10.07467
 Alpha  occ. eigenvalues --  -10.07439 -10.07240 -10.07198 -10.07149 -10.07050
 Alpha  occ. eigenvalues --  -10.06969 -10.06809 -10.06507 -10.06500 -10.06417
 Alpha  occ. eigenvalues --  -10.06396 -10.06388 -10.06311 -10.05871 -10.05601
 Alpha  occ. eigenvalues --  -10.05474 -10.05356 -10.04998 -10.04674 -10.04397
 Alpha  occ. eigenvalues --  -10.04280 -10.04069 -10.03997 -10.03992  -9.31761
 Alpha  occ. eigenvalues --   -7.02190  -7.01877  -7.01834  -3.98975  -3.98186
 Alpha  occ. eigenvalues --   -2.58827  -2.58451  -2.58404  -2.58000  -2.55806
 Alpha  occ. eigenvalues --   -2.54537  -1.07244  -1.05430  -1.04137  -0.94862
 Alpha  occ. eigenvalues --   -0.90120  -0.87795  -0.86536  -0.82638  -0.81509
 Alpha  occ. eigenvalues --   -0.79805  -0.79085  -0.78945  -0.78213  -0.75832
 Alpha  occ. eigenvalues --   -0.75113  -0.74768  -0.73845  -0.72370  -0.71527
 Alpha  occ. eigenvalues --   -0.71254  -0.69900  -0.69369  -0.69205  -0.68439
 Alpha  occ. eigenvalues --   -0.65454  -0.65133  -0.64862  -0.64683  -0.64572
 Alpha  occ. eigenvalues --   -0.64279  -0.62736  -0.61520  -0.60800  -0.60041
 Alpha  occ. eigenvalues --   -0.58813  -0.57555  -0.57318  -0.56606  -0.55820
 Alpha  occ. eigenvalues --   -0.55630  -0.55069  -0.52009  -0.51011  -0.50664
 Alpha  occ. eigenvalues --   -0.50395  -0.49951  -0.49169  -0.48701  -0.48523
 Alpha  occ. eigenvalues --   -0.48112  -0.46847  -0.46373  -0.45776  -0.45381
 Alpha  occ. eigenvalues --   -0.44953  -0.44753  -0.43413  -0.42983  -0.42848
 Alpha  occ. eigenvalues --   -0.42645  -0.42310  -0.42163  -0.41855  -0.41704
 Alpha  occ. eigenvalues --   -0.41234  -0.40914  -0.40774  -0.40564  -0.40527
 Alpha  occ. eigenvalues --   -0.39881  -0.39839  -0.39440  -0.39355  -0.38998
 Alpha  occ. eigenvalues --   -0.38751  -0.38547  -0.38440  -0.37905  -0.37292
 Alpha  occ. eigenvalues --   -0.37243  -0.36841  -0.36483  -0.36048  -0.35633
 Alpha  occ. eigenvalues --   -0.35397  -0.35206  -0.34941  -0.34676  -0.34650
 Alpha  occ. eigenvalues --   -0.34470  -0.34454  -0.33967  -0.33858  -0.33402
 Alpha  occ. eigenvalues --   -0.33307  -0.33079  -0.33002  -0.32919  -0.32501
 Alpha  occ. eigenvalues --   -0.32265  -0.32168  -0.31931  -0.31853  -0.31556
 Alpha  occ. eigenvalues --   -0.31234  -0.30909  -0.30282  -0.29990  -0.29863
 Alpha  occ. eigenvalues --   -0.29758  -0.29402  -0.29284  -0.29270  -0.28823
 Alpha  occ. eigenvalues --   -0.27412  -0.27049  -0.26164  -0.25785  -0.25365
 Alpha  occ. eigenvalues --   -0.25274  -0.24757  -0.24256  -0.23925  -0.23609
 Alpha  occ. eigenvalues --   -0.23470  -0.23267  -0.22007  -0.21757  -0.21404
 Alpha  occ. eigenvalues --   -0.20572  -0.20056  -0.19559  -0.18871  -0.18798
 Alpha  occ. eigenvalues --   -0.17690  -0.16863  -0.15165  -0.13565
 Alpha virt. eigenvalues --   -0.10624  -0.08919  -0.08566  -0.05496  -0.05102
 Alpha virt. eigenvalues --   -0.04522  -0.04478  -0.03736  -0.03000  -0.02156
 Alpha virt. eigenvalues --    0.00213   0.01297   0.01579   0.01936   0.02345
 Alpha virt. eigenvalues --    0.02707   0.03578   0.03895   0.04132   0.04552
 Alpha virt. eigenvalues --    0.04882   0.05239   0.05493   0.05702   0.05980
 Alpha virt. eigenvalues --    0.06056   0.06566   0.06670   0.06874   0.06978
 Alpha virt. eigenvalues --    0.07335   0.07602   0.07862   0.08133   0.08278
 Alpha virt. eigenvalues --    0.08445   0.08808   0.08951   0.09093   0.09699
 Alpha virt. eigenvalues --    0.09885   0.10002   0.10030   0.10274   0.10374
 Alpha virt. eigenvalues --    0.10555   0.10654   0.10946   0.11153   0.11403
 Alpha virt. eigenvalues --    0.11418   0.11622   0.11972   0.12111   0.12470
 Alpha virt. eigenvalues --    0.12637   0.12700   0.12885   0.13023   0.13213
 Alpha virt. eigenvalues --    0.13496   0.13691   0.13751   0.13806   0.13985
 Alpha virt. eigenvalues --    0.14211   0.14574   0.14681   0.14863   0.15080
 Alpha virt. eigenvalues --    0.15213   0.15343   0.15943   0.16011   0.16146
 Alpha virt. eigenvalues --    0.16434   0.16451   0.16752   0.17051   0.17182
 Alpha virt. eigenvalues --    0.17247   0.17609   0.17965   0.18204   0.18328
 Alpha virt. eigenvalues --    0.18597   0.18949   0.19044   0.19224   0.19525
 Alpha virt. eigenvalues --    0.19635   0.20057   0.20324   0.20599   0.20734
 Alpha virt. eigenvalues --    0.20999   0.21288   0.21398   0.21545   0.21798
 Alpha virt. eigenvalues --    0.22000   0.22125   0.22295   0.22675   0.22932
 Alpha virt. eigenvalues --    0.23041   0.23146   0.23417   0.23592   0.23851
 Alpha virt. eigenvalues --    0.23984   0.24054   0.24275   0.24459   0.24597
 Alpha virt. eigenvalues --    0.24824   0.24910   0.25220   0.25317   0.25560
 Alpha virt. eigenvalues --    0.25916   0.25983   0.26379   0.26518   0.26733
 Alpha virt. eigenvalues --    0.26849   0.26910   0.27088   0.27342   0.27365
 Alpha virt. eigenvalues --    0.27665   0.27873   0.28062   0.28457   0.28656
 Alpha virt. eigenvalues --    0.29002   0.29074   0.29239   0.29471   0.29683
 Alpha virt. eigenvalues --    0.29758   0.29859   0.30084   0.30175   0.30376
 Alpha virt. eigenvalues --    0.30460   0.31004   0.31122   0.31263   0.31398
 Alpha virt. eigenvalues --    0.31707   0.31947   0.32052   0.32354   0.32481
 Alpha virt. eigenvalues --    0.32612   0.32839   0.33297   0.33379   0.33519
 Alpha virt. eigenvalues --    0.33831   0.34032   0.34260   0.34273   0.34529
 Alpha virt. eigenvalues --    0.34824   0.34886   0.35149   0.35420   0.35514
 Alpha virt. eigenvalues --    0.35764   0.35885   0.35986   0.36142   0.36268
 Alpha virt. eigenvalues --    0.36479   0.36755   0.36898   0.36987   0.37090
 Alpha virt. eigenvalues --    0.37301   0.37547   0.37560   0.37946   0.38287
 Alpha virt. eigenvalues --    0.38321   0.38437   0.38532   0.38650   0.38899
 Alpha virt. eigenvalues --    0.39074   0.39225   0.39247   0.39464   0.39718
 Alpha virt. eigenvalues --    0.39892   0.39983   0.40041   0.40224   0.40340
 Alpha virt. eigenvalues --    0.40561   0.40695   0.40854   0.41073   0.41209
 Alpha virt. eigenvalues --    0.41473   0.41577   0.42071   0.42098   0.42244
 Alpha virt. eigenvalues --    0.42332   0.42646   0.42681   0.42800   0.43062
 Alpha virt. eigenvalues --    0.43107   0.43368   0.43522   0.43682   0.43779
 Alpha virt. eigenvalues --    0.43822   0.44171   0.44220   0.44330   0.44607
 Alpha virt. eigenvalues --    0.44664   0.44780   0.45047   0.45265   0.45283
 Alpha virt. eigenvalues --    0.45359   0.45435   0.45756   0.46023   0.46147
 Alpha virt. eigenvalues --    0.46301   0.46365   0.46625   0.46749   0.46886
 Alpha virt. eigenvalues --    0.46982   0.47159   0.47368   0.47710   0.47924
 Alpha virt. eigenvalues --    0.48046   0.48086   0.48453   0.48524   0.48616
 Alpha virt. eigenvalues --    0.49023   0.49188   0.49368   0.49772   0.49940
 Alpha virt. eigenvalues --    0.50234   0.50553   0.50774   0.50818   0.51065
 Alpha virt. eigenvalues --    0.51470   0.51676   0.51895   0.51966   0.52542
 Alpha virt. eigenvalues --    0.52826   0.52947   0.53141   0.53264   0.53632
 Alpha virt. eigenvalues --    0.53957   0.54317   0.54580   0.54798   0.55142
 Alpha virt. eigenvalues --    0.55553   0.55768   0.56036   0.56171   0.56419
 Alpha virt. eigenvalues --    0.56707   0.57208   0.57530   0.57720   0.57880
 Alpha virt. eigenvalues --    0.58084   0.58355   0.58906   0.59113   0.59175
 Alpha virt. eigenvalues --    0.59413   0.59652   0.60286   0.60505   0.60721
 Alpha virt. eigenvalues --    0.60738   0.61188   0.61347   0.61680   0.61900
 Alpha virt. eigenvalues --    0.62334   0.62541   0.62937   0.63162   0.63227
 Alpha virt. eigenvalues --    0.63508   0.63574   0.63998   0.64246   0.64571
 Alpha virt. eigenvalues --    0.64766   0.65212   0.65398   0.65609   0.65820
 Alpha virt. eigenvalues --    0.66064   0.66265   0.66578   0.66664   0.66811
 Alpha virt. eigenvalues --    0.66935   0.67191   0.67703   0.68001   0.68017
 Alpha virt. eigenvalues --    0.68201   0.68547   0.68710   0.69276   0.69588
 Alpha virt. eigenvalues --    0.70021   0.70143   0.70456   0.70601   0.71094
 Alpha virt. eigenvalues --    0.71191   0.71662   0.71694   0.71935   0.72240
 Alpha virt. eigenvalues --    0.72405   0.72850   0.73310   0.73492   0.73819
 Alpha virt. eigenvalues --    0.73898   0.74211   0.74304   0.74835   0.75121
 Alpha virt. eigenvalues --    0.75524   0.75771   0.75998   0.76072   0.76137
 Alpha virt. eigenvalues --    0.76440   0.76832   0.77037   0.77202   0.77709
 Alpha virt. eigenvalues --    0.77769   0.78199   0.78427   0.78507   0.78902
 Alpha virt. eigenvalues --    0.79158   0.79556   0.79803   0.80058   0.80286
 Alpha virt. eigenvalues --    0.80528   0.80931   0.81072   0.81592   0.81963
 Alpha virt. eigenvalues --    0.82230   0.82549   0.82690   0.83226   0.83574
 Alpha virt. eigenvalues --    0.83728   0.83971   0.84372   0.84487   0.84835
 Alpha virt. eigenvalues --    0.85245   0.85311   0.85566   0.85878   0.86347
 Alpha virt. eigenvalues --    0.86380   0.86573   0.87030   0.87283   0.87441
 Alpha virt. eigenvalues --    0.87853   0.88228   0.88544   0.88832   0.89125
 Alpha virt. eigenvalues --    0.89288   0.89590   0.89709   0.90103   0.90288
 Alpha virt. eigenvalues --    0.90582   0.90839   0.91495   0.91683   0.92166
 Alpha virt. eigenvalues --    0.92229   0.92520   0.92703   0.93292   0.93963
 Alpha virt. eigenvalues --    0.94103   0.94204   0.94789   0.95228   0.95435
 Alpha virt. eigenvalues --    0.95949   0.96276   0.96406   0.96810   0.97170
 Alpha virt. eigenvalues --    0.97869   0.98363   0.98481   0.98721   0.99103
 Alpha virt. eigenvalues --    0.99684   1.00068   1.00345   1.00954   1.01374
 Alpha virt. eigenvalues --    1.01644   1.02024   1.02332   1.02580   1.02928
 Alpha virt. eigenvalues --    1.03260   1.03551   1.03899   1.04286   1.04535
 Alpha virt. eigenvalues --    1.04965   1.04983   1.05437   1.05615   1.06178
 Alpha virt. eigenvalues --    1.06479   1.06795   1.06955   1.07090   1.07298
 Alpha virt. eigenvalues --    1.07658   1.08334   1.08555   1.08862   1.09260
 Alpha virt. eigenvalues --    1.09465   1.09537   1.09953   1.10329   1.10599
 Alpha virt. eigenvalues --    1.10910   1.10968   1.11671   1.11991   1.12421
 Alpha virt. eigenvalues --    1.12782   1.13020   1.13336   1.13443   1.13763
 Alpha virt. eigenvalues --    1.14099   1.14583   1.14952   1.15426   1.15688
 Alpha virt. eigenvalues --    1.15802   1.16246   1.16567   1.16691   1.16818
 Alpha virt. eigenvalues --    1.17055   1.17630   1.17786   1.18484   1.18621
 Alpha virt. eigenvalues --    1.19189   1.19389   1.19797   1.20368   1.20526
 Alpha virt. eigenvalues --    1.21001   1.21034   1.21407   1.21543   1.21929
 Alpha virt. eigenvalues --    1.22160   1.22512   1.23132   1.23294   1.24041
 Alpha virt. eigenvalues --    1.24176   1.24327   1.24510   1.25016   1.25181
 Alpha virt. eigenvalues --    1.25608   1.25835   1.26030   1.26395   1.26775
 Alpha virt. eigenvalues --    1.26890   1.27239   1.27657   1.27969   1.28214
 Alpha virt. eigenvalues --    1.28631   1.28840   1.28963   1.29485   1.29736
 Alpha virt. eigenvalues --    1.30289   1.30484   1.30954   1.31171   1.31825
 Alpha virt. eigenvalues --    1.32266   1.32752   1.32835   1.33075   1.33483
 Alpha virt. eigenvalues --    1.33886   1.34469   1.34857   1.35215   1.35815
 Alpha virt. eigenvalues --    1.35893   1.36180   1.37312   1.37398   1.37603
 Alpha virt. eigenvalues --    1.37884   1.38342   1.38783   1.39375   1.40102
 Alpha virt. eigenvalues --    1.40493   1.40809   1.41002   1.41148   1.42135
 Alpha virt. eigenvalues --    1.42597   1.42750   1.43387   1.43771   1.44034
 Alpha virt. eigenvalues --    1.44323   1.44546   1.44889   1.45429   1.45928
 Alpha virt. eigenvalues --    1.46101   1.46470   1.46618   1.47000   1.47296
 Alpha virt. eigenvalues --    1.47575   1.47767   1.48244   1.48665   1.48824
 Alpha virt. eigenvalues --    1.49136   1.49550   1.49912   1.50381   1.50864
 Alpha virt. eigenvalues --    1.51157   1.51188   1.51589   1.52129   1.52328
 Alpha virt. eigenvalues --    1.52570   1.53156   1.53306   1.53498   1.53951
 Alpha virt. eigenvalues --    1.54275   1.54680   1.55015   1.55142   1.55329
 Alpha virt. eigenvalues --    1.55611   1.55871   1.56052   1.56088   1.56756
 Alpha virt. eigenvalues --    1.56930   1.57218   1.57360   1.57707   1.57925
 Alpha virt. eigenvalues --    1.58287   1.58716   1.58818   1.59275   1.59463
 Alpha virt. eigenvalues --    1.59831   1.60007   1.60246   1.60510   1.60646
 Alpha virt. eigenvalues --    1.60815   1.61038   1.61112   1.61317   1.61736
 Alpha virt. eigenvalues --    1.61822   1.61939   1.62635   1.62759   1.63140
 Alpha virt. eigenvalues --    1.63176   1.63502   1.63640   1.64106   1.64507
 Alpha virt. eigenvalues --    1.64542   1.64971   1.65487   1.65868   1.66094
 Alpha virt. eigenvalues --    1.66406   1.66831   1.67109   1.67446   1.67734
 Alpha virt. eigenvalues --    1.68084   1.68549   1.68874   1.69207   1.69442
 Alpha virt. eigenvalues --    1.69772   1.69925   1.70117   1.70479   1.70630
 Alpha virt. eigenvalues --    1.70925   1.71436   1.71689   1.72455   1.72670
 Alpha virt. eigenvalues --    1.72813   1.73029   1.73307   1.73802   1.73852
 Alpha virt. eigenvalues --    1.74270   1.74936   1.75124   1.75645   1.76096
 Alpha virt. eigenvalues --    1.76550   1.76702   1.77453   1.77856   1.78316
 Alpha virt. eigenvalues --    1.78532   1.78662   1.78919   1.79319   1.79661
 Alpha virt. eigenvalues --    1.80559   1.80904   1.81783   1.82068   1.82377
 Alpha virt. eigenvalues --    1.82437   1.83142   1.83300   1.83618   1.84123
 Alpha virt. eigenvalues --    1.84472   1.84599   1.85239   1.85752   1.86116
 Alpha virt. eigenvalues --    1.86604   1.86887   1.86964   1.87789   1.88116
 Alpha virt. eigenvalues --    1.88617   1.89154   1.89683   1.89893   1.90104
 Alpha virt. eigenvalues --    1.90498   1.90850   1.91299   1.91816   1.92031
 Alpha virt. eigenvalues --    1.92376   1.92524   1.92708   1.93027   1.93267
 Alpha virt. eigenvalues --    1.93823   1.94314   1.94389   1.94771   1.95182
 Alpha virt. eigenvalues --    1.95685   1.95763   1.96062   1.96312   1.96417
 Alpha virt. eigenvalues --    1.96646   1.97172   1.97313   1.97622   1.98210
 Alpha virt. eigenvalues --    1.98474   1.98833   1.99143   1.99664   1.99968
 Alpha virt. eigenvalues --    2.00288   2.00550   2.00670   2.01434   2.01673
 Alpha virt. eigenvalues --    2.02254   2.03017   2.03387   2.03455   2.03793
 Alpha virt. eigenvalues --    2.04022   2.04411   2.04619   2.04869   2.05338
 Alpha virt. eigenvalues --    2.05666   2.05947   2.06497   2.06834   2.07038
 Alpha virt. eigenvalues --    2.07554   2.07961   2.08364   2.09261   2.09470
 Alpha virt. eigenvalues --    2.09777   2.10063   2.10338   2.10573   2.11012
 Alpha virt. eigenvalues --    2.11281   2.11802   2.12060   2.12395   2.12749
 Alpha virt. eigenvalues --    2.12813   2.13125   2.13688   2.13959   2.14509
 Alpha virt. eigenvalues --    2.15168   2.15633   2.16227   2.16580   2.16926
 Alpha virt. eigenvalues --    2.17486   2.17764   2.18011   2.18536   2.18822
 Alpha virt. eigenvalues --    2.19160   2.19479   2.19759   2.19779   2.20302
 Alpha virt. eigenvalues --    2.20622   2.21080   2.21187   2.21957   2.22463
 Alpha virt. eigenvalues --    2.22556   2.22696   2.22937   2.23330   2.23906
 Alpha virt. eigenvalues --    2.23976   2.24218   2.24374   2.24836   2.25230
 Alpha virt. eigenvalues --    2.25328   2.25854   2.26237   2.26389   2.26740
 Alpha virt. eigenvalues --    2.27512   2.28094   2.28639   2.28715   2.28865
 Alpha virt. eigenvalues --    2.29309   2.29476   2.29933   2.30482   2.31080
 Alpha virt. eigenvalues --    2.31424   2.31655   2.32175   2.32250   2.32681
 Alpha virt. eigenvalues --    2.33299   2.33541   2.33655   2.34095   2.34475
 Alpha virt. eigenvalues --    2.34542   2.35131   2.35517   2.35678   2.36136
 Alpha virt. eigenvalues --    2.36316   2.36938   2.37327   2.37515   2.38031
 Alpha virt. eigenvalues --    2.38328   2.38852   2.39233   2.39502   2.40157
 Alpha virt. eigenvalues --    2.40294   2.40763   2.40995   2.41098   2.41570
 Alpha virt. eigenvalues --    2.41945   2.42235   2.42408   2.43037   2.43136
 Alpha virt. eigenvalues --    2.43432   2.43975   2.44287   2.44727   2.44977
 Alpha virt. eigenvalues --    2.45455   2.45755   2.46467   2.46825   2.47209
 Alpha virt. eigenvalues --    2.47979   2.48389   2.48895   2.49418   2.49774
 Alpha virt. eigenvalues --    2.50161   2.50748   2.50813   2.51480   2.51888
 Alpha virt. eigenvalues --    2.52279   2.52499   2.52910   2.53150   2.53470
 Alpha virt. eigenvalues --    2.53710   2.54245   2.54417   2.54858   2.55423
 Alpha virt. eigenvalues --    2.55629   2.56023   2.56067   2.56472   2.56995
 Alpha virt. eigenvalues --    2.57081   2.57216   2.57735   2.57889   2.58450
 Alpha virt. eigenvalues --    2.58777   2.58960   2.59394   2.59547   2.59741
 Alpha virt. eigenvalues --    2.59943   2.60213   2.60365   2.60832   2.61290
 Alpha virt. eigenvalues --    2.61317   2.61504   2.61742   2.62001   2.62114
 Alpha virt. eigenvalues --    2.62495   2.62768   2.63281   2.63325   2.63697
 Alpha virt. eigenvalues --    2.63883   2.64134   2.64623   2.64972   2.65217
 Alpha virt. eigenvalues --    2.65322   2.65612   2.66182   2.66338   2.66427
 Alpha virt. eigenvalues --    2.66720   2.67003   2.67517   2.67775   2.68213
 Alpha virt. eigenvalues --    2.68376   2.68907   2.68973   2.69251   2.69655
 Alpha virt. eigenvalues --    2.69862   2.70123   2.70305   2.70854   2.70928
 Alpha virt. eigenvalues --    2.71419   2.71706   2.72029   2.72278   2.72507
 Alpha virt. eigenvalues --    2.73136   2.73257   2.73389   2.73789   2.74030
 Alpha virt. eigenvalues --    2.74497   2.74588   2.74985   2.75172   2.75846
 Alpha virt. eigenvalues --    2.76317   2.76555   2.76663   2.77033   2.77166
 Alpha virt. eigenvalues --    2.77556   2.78171   2.78424   2.78474   2.78859
 Alpha virt. eigenvalues --    2.79492   2.79810   2.79896   2.80175   2.80402
 Alpha virt. eigenvalues --    2.80729   2.81482   2.81766   2.81921   2.82373
 Alpha virt. eigenvalues --    2.82401   2.83006   2.83150   2.83516   2.84046
 Alpha virt. eigenvalues --    2.84381   2.84639   2.84784   2.85131   2.85596
 Alpha virt. eigenvalues --    2.85669   2.86111   2.86486   2.86620   2.87063
 Alpha virt. eigenvalues --    2.87599   2.87634   2.87940   2.88127   2.88366
 Alpha virt. eigenvalues --    2.88750   2.89229   2.89368   2.89759   2.89962
 Alpha virt. eigenvalues --    2.90185   2.90490   2.90647   2.91005   2.91245
 Alpha virt. eigenvalues --    2.91420   2.91699   2.91896   2.92087   2.92408
 Alpha virt. eigenvalues --    2.92738   2.93196   2.93332   2.93516   2.93999
 Alpha virt. eigenvalues --    2.94229   2.94596   2.94772   2.95237   2.95401
 Alpha virt. eigenvalues --    2.95513   2.96256   2.96866   2.97564   2.97867
 Alpha virt. eigenvalues --    2.98016   2.98310   2.98929   2.99082   2.99553
 Alpha virt. eigenvalues --    2.99730   3.00047   3.00232   3.01097   3.01742
 Alpha virt. eigenvalues --    3.02091   3.02304   3.02760   3.02988   3.03447
 Alpha virt. eigenvalues --    3.03952   3.04469   3.04608   3.04724   3.05806
 Alpha virt. eigenvalues --    3.06465   3.06542   3.06908   3.07382   3.07455
 Alpha virt. eigenvalues --    3.07729   3.08400   3.08711   3.08731   3.09126
 Alpha virt. eigenvalues --    3.09158   3.10012   3.10459   3.10586   3.10921
 Alpha virt. eigenvalues --    3.11520   3.11775   3.12048   3.12404   3.12781
 Alpha virt. eigenvalues --    3.12913   3.13081   3.13510   3.14296   3.14467
 Alpha virt. eigenvalues --    3.14649   3.15061   3.15563   3.15948   3.16233
 Alpha virt. eigenvalues --    3.16504   3.16987   3.17228   3.17537   3.17813
 Alpha virt. eigenvalues --    3.17842   3.18445   3.18624   3.18971   3.19155
 Alpha virt. eigenvalues --    3.19410   3.19711   3.19745   3.20292   3.20401
 Alpha virt. eigenvalues --    3.20821   3.21389   3.21556   3.21670   3.22033
 Alpha virt. eigenvalues --    3.22301   3.22643   3.22900   3.23010   3.23682
 Alpha virt. eigenvalues --    3.23761   3.24186   3.24239   3.24362   3.24746
 Alpha virt. eigenvalues --    3.25007   3.25143   3.25280   3.25698   3.25723
 Alpha virt. eigenvalues --    3.26549   3.26670   3.26990   3.27281   3.27608
 Alpha virt. eigenvalues --    3.27853   3.28391   3.29000   3.29289   3.29556
 Alpha virt. eigenvalues --    3.29729   3.30108   3.30326   3.30465   3.30532
 Alpha virt. eigenvalues --    3.30908   3.31082   3.31404   3.31610   3.31929
 Alpha virt. eigenvalues --    3.32453   3.32605   3.32852   3.33041   3.33347
 Alpha virt. eigenvalues --    3.33573   3.33681   3.34151   3.34433   3.34671
 Alpha virt. eigenvalues --    3.34755   3.35067   3.35245   3.35431   3.35947
 Alpha virt. eigenvalues --    3.36216   3.36580   3.36876   3.37099   3.37604
 Alpha virt. eigenvalues --    3.37781   3.37997   3.38124   3.38346   3.38502
 Alpha virt. eigenvalues --    3.38787   3.38891   3.39285   3.39414   3.39926
 Alpha virt. eigenvalues --    3.40455   3.40739   3.40759   3.41094   3.41208
 Alpha virt. eigenvalues --    3.41328   3.41610   3.41856   3.42094   3.42389
 Alpha virt. eigenvalues --    3.42512   3.42882   3.42935   3.43070   3.43430
 Alpha virt. eigenvalues --    3.43731   3.43862   3.44138   3.44269   3.44613
 Alpha virt. eigenvalues --    3.44938   3.45098   3.45307   3.45692   3.46089
 Alpha virt. eigenvalues --    3.46422   3.46450   3.46818   3.47111   3.47292
 Alpha virt. eigenvalues --    3.47891   3.48023   3.48170   3.48351   3.48520
 Alpha virt. eigenvalues --    3.48766   3.49258   3.49740   3.49826   3.49996
 Alpha virt. eigenvalues --    3.50307   3.50525   3.50697   3.51088   3.51885
 Alpha virt. eigenvalues --    3.52123   3.52370   3.52465   3.52790   3.53181
 Alpha virt. eigenvalues --    3.53468   3.53651   3.54176   3.54755   3.55104
 Alpha virt. eigenvalues --    3.55188   3.55596   3.55944   3.56220   3.56639
 Alpha virt. eigenvalues --    3.56714   3.57046   3.57403   3.57423   3.57674
 Alpha virt. eigenvalues --    3.57979   3.58457   3.58667   3.59231   3.59565
 Alpha virt. eigenvalues --    3.59998   3.60288   3.60757   3.60973   3.61627
 Alpha virt. eigenvalues --    3.62076   3.62369   3.62516   3.63090   3.63551
 Alpha virt. eigenvalues --    3.64096   3.64211   3.64626   3.65251   3.65760
 Alpha virt. eigenvalues --    3.66657   3.66938   3.67519   3.67796   3.68404
 Alpha virt. eigenvalues --    3.68686   3.68750   3.69377   3.69702   3.70111
 Alpha virt. eigenvalues --    3.70413   3.70958   3.71194   3.71797   3.71939
 Alpha virt. eigenvalues --    3.72159   3.72773   3.72807   3.73172   3.73595
 Alpha virt. eigenvalues --    3.74261   3.74378   3.75269   3.76054   3.76192
 Alpha virt. eigenvalues --    3.76456   3.77350   3.78068   3.78474   3.78981
 Alpha virt. eigenvalues --    3.79242   3.79481   3.80084   3.80250   3.81170
 Alpha virt. eigenvalues --    3.81663   3.82018   3.82208   3.82639   3.83458
 Alpha virt. eigenvalues --    3.83531   3.84028   3.84367   3.84824   3.85117
 Alpha virt. eigenvalues --    3.85409   3.85884   3.86217   3.86559   3.86874
 Alpha virt. eigenvalues --    3.87464   3.87967   3.88843   3.89356   3.89743
 Alpha virt. eigenvalues --    3.90212   3.90744   3.92140   3.92704   3.93332
 Alpha virt. eigenvalues --    3.94216   3.94978   3.95137   3.95466   3.96009
 Alpha virt. eigenvalues --    3.96396   3.96998   3.97227   3.97878   3.98358
 Alpha virt. eigenvalues --    3.98981   3.99278   3.99908   4.00417   4.00760
 Alpha virt. eigenvalues --    4.01727   4.01996   4.02453   4.03195   4.03769
 Alpha virt. eigenvalues --    4.04466   4.04615   4.04795   4.05336   4.05606
 Alpha virt. eigenvalues --    4.06512   4.07072   4.07443   4.08096   4.08182
 Alpha virt. eigenvalues --    4.08798   4.09674   4.10020   4.10308   4.10728
 Alpha virt. eigenvalues --    4.11288   4.12978   4.13411   4.13771   4.13977
 Alpha virt. eigenvalues --    4.14288   4.14950   4.15173   4.15319   4.15628
 Alpha virt. eigenvalues --    4.15844   4.16579   4.16765   4.16936   4.17456
 Alpha virt. eigenvalues --    4.17929   4.19146   4.19385   4.19751   4.20021
 Alpha virt. eigenvalues --    4.20222   4.20496   4.21084   4.21130   4.21704
 Alpha virt. eigenvalues --    4.22279   4.22478   4.22985   4.23578   4.24051
 Alpha virt. eigenvalues --    4.24167   4.24932   4.25215   4.25467   4.26084
 Alpha virt. eigenvalues --    4.26603   4.26620   4.27257   4.27431   4.27542
 Alpha virt. eigenvalues --    4.27974   4.28200   4.28507   4.29411   4.29635
 Alpha virt. eigenvalues --    4.30339   4.30953   4.31637   4.32283   4.32545
 Alpha virt. eigenvalues --    4.32817   4.33535   4.33981   4.34237   4.34757
 Alpha virt. eigenvalues --    4.35259   4.35433   4.36309   4.37053   4.37306
 Alpha virt. eigenvalues --    4.37413   4.38064   4.38296   4.39168   4.39827
 Alpha virt. eigenvalues --    4.40152   4.41212   4.41779   4.42353   4.42971
 Alpha virt. eigenvalues --    4.43728   4.43978   4.44193   4.45023   4.45446
 Alpha virt. eigenvalues --    4.46136   4.46675   4.47213   4.47337   4.47945
 Alpha virt. eigenvalues --    4.48129   4.49245   4.49776   4.50052   4.50639
 Alpha virt. eigenvalues --    4.50705   4.52815   4.53131   4.53529   4.54099
 Alpha virt. eigenvalues --    4.54569   4.54889   4.55457   4.56231   4.57512
 Alpha virt. eigenvalues --    4.57991   4.58357   4.58597   4.59515   4.60898
 Alpha virt. eigenvalues --    4.61802   4.62736   4.64969   4.66283   4.67057
 Alpha virt. eigenvalues --    4.67540   4.69922   4.71236   4.71793   4.72816
 Alpha virt. eigenvalues --    4.73445   4.74372   4.74807   4.75071   4.75425
 Alpha virt. eigenvalues --    4.76251   4.76684   4.77186   4.77743   4.78268
 Alpha virt. eigenvalues --    4.78725   4.80227   4.80997   4.82126   4.83292
 Alpha virt. eigenvalues --    4.84425   4.85677   4.86386   4.86678   4.87241
 Alpha virt. eigenvalues --    4.87707   4.88660   4.90018   4.92053   4.93645
 Alpha virt. eigenvalues --    4.94836   4.95182   4.95809   4.97646   4.98932
 Alpha virt. eigenvalues --    4.99367   4.99969   5.02165   5.02516   5.03392
 Alpha virt. eigenvalues --    5.04289   5.05761   5.06540   5.07585   5.08048
 Alpha virt. eigenvalues --    5.09082   5.09657   5.10580   5.11356   5.12113
 Alpha virt. eigenvalues --    5.13122   5.13321   5.14628   5.15756   5.15971
 Alpha virt. eigenvalues --    5.16344   5.17578   5.18160   5.19633   5.19857
[...]
              Bcc     0.0011     0.605     0.216     0.202  0.6659 -0.5374 -0.5175
 
              Baa    -0.0007    -0.388    -0.138    -0.129  0.3803  0.8610  0.3377
    36 H(1)   Bbb    -0.0004    -0.237    -0.085    -0.079  0.1237 -0.4092  0.9040
              Bcc     0.0012     0.625     0.223     0.208  0.9166 -0.3020 -0.2621
 
              Baa    -0.0016    -0.212    -0.075    -0.071 -0.3369  0.6957 -0.6345
    37 C(13)  Bbb    -0.0010    -0.132    -0.047    -0.044  0.7138  0.6281  0.3097
              Bcc     0.0026     0.344     0.123     0.115 -0.6140  0.3486  0.7082
 
              Baa    -0.0010    -0.552    -0.197    -0.184  0.2950  0.9478 -0.1206
    38 H(1)   Bbb    -0.0007    -0.363    -0.129    -0.121  0.8015 -0.1768  0.5713
              Bcc     0.0017     0.914     0.326     0.305 -0.5202  0.2652  0.8118
 
              Baa    -0.0028    -0.370    -0.132    -0.123 -0.2882  0.6651  0.6889
    39 C(13)  Bbb    -0.0018    -0.242    -0.086    -0.081  0.1538  0.7422 -0.6522
              Bcc     0.0046     0.611     0.218     0.204  0.9451  0.0820  0.3162
 
              Baa    -0.0021    -1.109    -0.396    -0.370  0.4833  0.8579 -0.1744
    40 H(1)   Bbb    -0.0016    -0.876    -0.313    -0.292 -0.3593  0.3761  0.8541
              Bcc     0.0037     1.985     0.708     0.662  0.7983 -0.3501  0.4900
 
              Baa    -0.0089     0.643     0.229     0.214 -0.1572 -0.2444  0.9569
    41 O(17)  Bbb    -0.0066     0.480     0.171     0.160 -0.3000  0.9349  0.1895
              Bcc     0.0155    -1.123    -0.401    -0.374  0.9409  0.2573  0.2203
 
              Baa    -0.0375     2.711     0.967     0.904 -0.1086 -0.2469  0.9629
    42 O(17)  Bbb    -0.0353     2.556     0.912     0.853  0.9705 -0.2360  0.0489
              Bcc     0.0728    -5.267    -1.879    -1.757  0.2152  0.9399  0.2653
 
              Baa    -0.3922    18.732     6.684     6.248 -0.4968  0.0724  0.8648
    43 Ni(61) Bbb    -0.0258     1.232     0.440     0.411  0.6980 -0.5589  0.4478
              Bcc     0.4180   -19.964    -7.124    -6.659  0.5157  0.8261  0.2272
 
              Baa    -0.0233    -1.221    -0.436    -0.407  0.5946  0.7826 -0.1843
    44 Cl(35) Bbb    -0.0041    -0.215    -0.077    -0.072  0.7327 -0.4331  0.5249
              Bcc     0.0274     1.436     0.512     0.479 -0.3310  0.4471  0.8310
 
              Baa    -0.0012    -0.160    -0.057    -0.053  0.5625 -0.1367  0.8154
    45 C(13)  Bbb    -0.0009    -0.124    -0.044    -0.041 -0.2485  0.9127  0.3243
              Bcc     0.0021     0.283     0.101     0.095  0.7886  0.3850 -0.4795
 
              Baa    -0.0007    -0.093    -0.033    -0.031  0.3564 -0.5005  0.7890
    46 C(13)  Bbb    -0.0003    -0.036    -0.013    -0.012  0.0410  0.8520  0.5219
              Bcc     0.0010     0.129     0.046     0.043  0.9334  0.1537 -0.3242
 
              Baa    -0.0008    -0.435    -0.155    -0.145 -0.4289  0.8104 -0.3992
    47 H(1)   Bbb    -0.0007    -0.361    -0.129    -0.120 -0.0570  0.4167  0.9072
              Bcc     0.0015     0.796     0.284     0.265  0.9015  0.4119 -0.1325
 
              Baa    -0.0005    -0.266    -0.095    -0.089 -0.0269  0.9568  0.2894
    48 H(1)   Bbb    -0.0004    -0.208    -0.074    -0.069  0.1900 -0.2794  0.9412
              Bcc     0.0009     0.474     0.169     0.158  0.9814  0.0803 -0.1743
 
              Baa    -0.0003    -0.183    -0.065    -0.061  0.4318 -0.6236  0.6517
    49 H(1)   Bbb    -0.0003    -0.165    -0.059    -0.055 -0.0130  0.7181  0.6958
              Bcc     0.0007     0.348     0.124     0.116  0.9019  0.3089 -0.3020
 
              Baa    -0.0004    -0.049    -0.017    -0.016 -0.0082  0.9996 -0.0270
    50 C(13)  Bbb    -0.0002    -0.031    -0.011    -0.010  0.6413  0.0260  0.7668
              Bcc     0.0006     0.080     0.029     0.027  0.7672 -0.0110 -0.6413
 
              Baa    -0.0003    -0.169    -0.060    -0.056 -0.0900  0.9707 -0.2228
    51 H(1)   Bbb    -0.0003    -0.153    -0.054    -0.051  0.6689  0.2247  0.7085
              Bcc     0.0006     0.321     0.115     0.107  0.7378 -0.0853 -0.6696
 
              Baa    -0.0002    -0.125    -0.045    -0.042 -0.1940  0.9652 -0.1755
    52 H(1)   Bbb    -0.0002    -0.116    -0.041    -0.039  0.5200  0.2529  0.8159
              Bcc     0.0005     0.241     0.086     0.080  0.8318  0.0671 -0.5509
 
              Baa    -0.0003    -0.164    -0.058    -0.055  0.4279  0.7415  0.5168
    53 H(1)   Bbb    -0.0003    -0.148    -0.053    -0.049  0.2658 -0.6497  0.7122
              Bcc     0.0006     0.312     0.111     0.104  0.8638 -0.1673 -0.4751
 
              Baa    -0.0005    -0.071    -0.025    -0.024  0.1656  0.7900  0.5903
    54 C(13)  Bbb    -0.0004    -0.053    -0.019    -0.018  0.7366 -0.4971  0.4586
              Bcc     0.0009     0.124     0.044     0.041 -0.6557 -0.3589  0.6643
 
              Baa    -0.0007    -0.367    -0.131    -0.122  0.3326  0.5623  0.7571
    55 H(1)   Bbb    -0.0005    -0.240    -0.086    -0.080  0.7582 -0.6369  0.1399
              Bcc     0.0011     0.607     0.217     0.202 -0.5608 -0.5274  0.6382
 
              Baa    -0.0003    -0.171    -0.061    -0.057  0.3328  0.5962  0.7306
    56 H(1)   Bbb    -0.0003    -0.141    -0.050    -0.047 -0.6382  0.7128 -0.2909
              Bcc     0.0006     0.312     0.111     0.104  0.6942  0.3695 -0.6177
 
              Baa    -0.0005    -0.247    -0.088    -0.082  0.5093  0.6647  0.5466
    57 H(1)   Bbb    -0.0003    -0.181    -0.064    -0.060 -0.6727  0.7037 -0.2289
              Bcc     0.0008     0.427     0.152     0.143 -0.5367 -0.2511  0.8055
 
              Baa    -0.0045    -0.600    -0.214    -0.200 -0.3931 -0.3401  0.8543
    58 C(13)  Bbb    -0.0037    -0.501    -0.179    -0.167  0.7378 -0.6711  0.0724
              Bcc     0.0082     1.101     0.393     0.367  0.5487  0.6588  0.5147
 
              Baa    -0.0014    -0.191    -0.068    -0.064  0.6117 -0.5090 -0.6055
    59 C(13)  Bbb    -0.0010    -0.139    -0.050    -0.047  0.1527 -0.6751  0.7218
              Bcc     0.0025     0.330     0.118     0.110  0.7762  0.5340  0.3352
 
              Baa    -0.0020    -1.057    -0.377    -0.353 -0.6454  0.2277  0.7291
    60 H(1)   Bbb    -0.0014    -0.734    -0.262    -0.245 -0.4144  0.6974 -0.5847
              Bcc     0.0034     1.791     0.639     0.597  0.6416  0.6795  0.3558
 
              Baa    -0.0011    -0.598    -0.213    -0.199 -0.4300  0.6737  0.6010
    61 H(1)   Bbb    -0.0009    -0.492    -0.176    -0.164  0.2111 -0.5722  0.7925
              Bcc     0.0020     1.090     0.389     0.364  0.8778  0.4677  0.1039
 
              Baa    -0.0008    -0.401    -0.143    -0.134 -0.5486  0.1692  0.8188
    62 H(1)   Bbb    -0.0006    -0.313    -0.112    -0.104 -0.4302  0.7826 -0.4499
              Bcc     0.0013     0.714     0.255     0.238  0.7170  0.5990  0.3565
 
              Baa    -0.0014    -0.186    -0.066    -0.062  0.1802  0.8502 -0.4946
    63 C(13)  Bbb    -0.0009    -0.119    -0.042    -0.040  0.7597 -0.4397 -0.4791
              Bcc     0.0023     0.305     0.109     0.102  0.6248  0.2894  0.7252
 
              Baa    -0.0009    -0.501    -0.179    -0.167 -0.0607  0.9962 -0.0620
    64 H(1)   Bbb    -0.0007    -0.358    -0.128    -0.120  0.8368  0.0169 -0.5473
              Bcc     0.0016     0.859     0.307     0.287  0.5442  0.0851  0.8346
 
              Baa    -0.0017    -0.913    -0.326    -0.305  0.0185  0.8857 -0.4639
    65 H(1)   Bbb    -0.0011    -0.601    -0.214    -0.200  0.9167 -0.2003 -0.3458
              Bcc     0.0028     1.514     0.540     0.505  0.3991  0.4189  0.8156
 
              Baa    -0.0007    -0.372    -0.133    -0.124  0.0749  0.8478 -0.5249
    66 H(1)   Bbb    -0.0005    -0.277    -0.099    -0.092  0.8266 -0.3472 -0.4429
              Bcc     0.0012     0.649     0.232     0.216  0.5578  0.4008  0.7268
 
              Baa    -0.0012    -0.155    -0.055    -0.052 -0.3306  0.7365  0.5902
    67 C(13)  Bbb    -0.0011    -0.154    -0.055    -0.051  0.3710  0.6764 -0.6363
              Bcc     0.0023     0.309     0.110     0.103  0.8678 -0.0086  0.4968
 
              Baa    -0.0006    -0.331    -0.118    -0.111 -0.4460  0.4633  0.7658
    68 H(1)   Bbb    -0.0004    -0.238    -0.085    -0.079  0.2943  0.8839 -0.3633
              Bcc     0.0011     0.570     0.203     0.190  0.8453 -0.0634  0.5306
 
              Baa    -0.0005    -0.279    -0.100    -0.093 -0.4407 -0.2090  0.8730
    69 H(1)   Bbb    -0.0004    -0.201    -0.072    -0.067 -0.3353  0.9404  0.0559
              Bcc     0.0009     0.481     0.172     0.160  0.8327  0.2681  0.4845
 
              Baa    -0.0006    -0.339    -0.121    -0.113  0.0059  0.9723 -0.2338
    70 H(1)   Bbb    -0.0005    -0.258    -0.092    -0.086 -0.2180  0.2294  0.9486
              Bcc     0.0011     0.597     0.213     0.199  0.9759  0.0454  0.2133
 
              Baa    -0.0020    -0.262    -0.093    -0.087  0.3786 -0.2829  0.8812
    71 C(13)  Bbb     0.0008     0.107     0.038     0.036  0.8214 -0.3360 -0.4608
              Bcc     0.0012     0.155     0.055     0.052  0.4265  0.8983  0.1052
 
              Baa    -0.0022    -0.301    -0.107    -0.100  0.6722 -0.5175 -0.5295
    72 C(13)  Bbb    -0.0010    -0.139    -0.050    -0.047  0.7019  0.6731  0.2331
              Bcc     0.0033     0.440     0.157     0.147  0.2358 -0.5283  0.8156
 
              Baa    -0.0021    -0.284    -0.101    -0.095  0.7055 -0.5906 -0.3917
    73 C(13)  Bbb    -0.0010    -0.134    -0.048    -0.045  0.7084  0.5709  0.4150
              Bcc     0.0031     0.418     0.149     0.140 -0.0215 -0.5703  0.8212
 
              Baa    -0.0016    -0.214    -0.076    -0.071  0.3038 -0.4330  0.8486
    74 C(13)  Bbb     0.0004     0.051     0.018     0.017  0.7139 -0.4864 -0.5038
              Bcc     0.0012     0.162     0.058     0.054  0.6309  0.7589  0.1614
 
              Baa    -0.0006    -0.300    -0.107    -0.100  0.3691 -0.2191  0.9032
    75 H(1)   Bbb    -0.0003    -0.161    -0.057    -0.054  0.8720 -0.2546 -0.4181
              Bcc     0.0009     0.461     0.165     0.154  0.3216  0.9419  0.0970
 
              Baa    -0.0014    -0.194    -0.069    -0.065  0.4064 -0.3703  0.8353
    76 C(13)  Bbb     0.0001     0.009     0.003     0.003 -0.5831  0.5987  0.5491
              Bcc     0.0014     0.185     0.066     0.062  0.7034  0.7103 -0.0274
 
              Baa    -0.0010    -0.519    -0.185    -0.173  0.4140  0.0714  0.9075
    77 H(1)   Bbb    -0.0004    -0.229    -0.082    -0.076  0.7680 -0.5626 -0.3061
              Bcc     0.0014     0.748     0.267     0.249  0.4887  0.8237 -0.2877
 
              Baa    -0.0022    -0.289    -0.103    -0.096  0.6265 -0.5585 -0.5437
    78 C(13)  Bbb    -0.0012    -0.166    -0.059    -0.055  0.7440  0.6365  0.2034
              Bcc     0.0034     0.455     0.162     0.152  0.2324 -0.5319  0.8143
 
              Baa    -0.0003    -0.159    -0.057    -0.053  0.2061 -0.2072  0.9563
    79 H(1)   Bbb    -0.0002    -0.101    -0.036    -0.034  0.8136 -0.5067 -0.2851
              Bcc     0.0005     0.261     0.093     0.087  0.5437  0.8368  0.0641
 
              Baa    -0.0004    -0.221    -0.079    -0.074  0.4159 -0.2209  0.8822
    80 H(1)   Bbb    -0.0003    -0.159    -0.057    -0.053 -0.5810  0.6817  0.4446
              Bcc     0.0007     0.380     0.136     0.127  0.6996  0.6975 -0.1551
 
              Baa    -0.0002    -0.024    -0.009    -0.008  0.4505 -0.4016  0.7973
    81 C(13)  Bbb    -0.0001    -0.019    -0.007    -0.006  0.6986 -0.3975 -0.5949
              Bcc     0.0003     0.044     0.016     0.015  0.5559  0.8251  0.1015
 
              Baa    -0.0002    -0.088    -0.031    -0.029  0.2622 -0.1624  0.9512
    82 H(1)   Bbb    -0.0001    -0.072    -0.026    -0.024  0.8349 -0.4562 -0.3080
              Bcc     0.0003     0.159     0.057     0.053  0.4840  0.8749  0.0160
 
              Baa    -0.0002    -0.092    -0.033    -0.031  0.5983 -0.5716  0.5615
    83 H(1)   Bbb    -0.0001    -0.077    -0.028    -0.026 -0.5603  0.2025  0.8031
              Bcc     0.0003     0.170     0.060     0.057  0.5728  0.7951  0.1991
 
              Baa    -0.0001    -0.071    -0.025    -0.024  0.6531 -0.5078 -0.5618
    84 H(1)   Bbb    -0.0001    -0.070    -0.025    -0.023  0.4019 -0.3963  0.8255
              Bcc     0.0003     0.141     0.050     0.047  0.6418  0.7649  0.0547
 
              Baa    -0.0021     0.152     0.054     0.051  0.7428 -0.4406 -0.5040
    85 O(17)  Bbb    -0.0016     0.117     0.042     0.039  0.6157  0.7453  0.2559
              Bcc     0.0037    -0.269    -0.096    -0.090  0.2629 -0.5004  0.8249
 
              Baa    -0.0019    -1.040    -0.371    -0.347  0.3384  0.7719  0.5382
    86 H(1)   Bbb     0.0003     0.173     0.062     0.058  0.7723 -0.5546  0.3098
              Bcc     0.0016     0.867     0.309     0.289 -0.5376 -0.3109  0.7838
 
              Baa    -0.0016    -0.221    -0.079    -0.074  0.1310  0.6954  0.7066
    87 C(13)  Bbb    -0.0006    -0.076    -0.027    -0.025  0.9887 -0.0396 -0.1443
              Bcc     0.0022     0.297     0.106     0.099 -0.0724  0.7175 -0.6928
 
              Baa    -0.0019    -0.257    -0.092    -0.086  0.7884  0.5179 -0.3321
    88 C(13)  Bbb     0.0002     0.028     0.010     0.009 -0.1676  0.7001  0.6941
              Bcc     0.0017     0.229     0.082     0.076  0.5919 -0.4915  0.6387
 
              Baa    -0.0015    -0.199    -0.071    -0.066  0.6885  0.6043 -0.4010
    89 C(13)  Bbb    -0.0000    -0.005    -0.002    -0.002  0.1094  0.4600  0.8812
              Bcc     0.0015     0.204     0.073     0.068  0.7169 -0.6506  0.2506
 
              Baa    -0.0010    -0.128    -0.046    -0.043 -0.2428  0.6737  0.6980
    90 C(13)  Bbb    -0.0003    -0.041    -0.015    -0.014  0.9688  0.1308  0.2107
              Bcc     0.0013     0.169     0.060     0.057  0.0506  0.7273 -0.6845
 
              Baa    -0.0009    -0.465    -0.166    -0.155  0.1695  0.9362  0.3080
    91 H(1)   Bbb    -0.0003    -0.160    -0.057    -0.053  0.8785 -0.0019 -0.4778
              Bcc     0.0012     0.625     0.223     0.209  0.4467 -0.3515  0.8227
 
              Baa    -0.0009    -0.124    -0.044    -0.041  0.2856  0.5185  0.8059
    92 C(13)  Bbb    -0.0004    -0.052    -0.019    -0.017  0.9578 -0.1257 -0.2586
              Bcc     0.0013     0.176     0.063     0.059 -0.0328  0.8458 -0.5326
 
              Baa    -0.0011    -0.583    -0.208    -0.194  0.3952  0.3310  0.8569
    93 H(1)   Bbb    -0.0008    -0.433    -0.155    -0.144  0.8909  0.0894 -0.4454
              Bcc     0.0019     1.016     0.362     0.339 -0.2240  0.9394 -0.2596
 
              Baa    -0.0005    -0.070    -0.025    -0.023  0.6956  0.7098 -0.1110
    94 C(13)  Bbb    -0.0002    -0.028    -0.010    -0.009 -0.2902  0.4190  0.8604
              Bcc     0.0007     0.097     0.035     0.032  0.6572 -0.5663  0.4974
 
              Baa    -0.0003    -0.167    -0.060    -0.056 -0.5318  0.5242  0.6652
    95 H(1)   Bbb    -0.0003    -0.150    -0.054    -0.050  0.6440  0.7604 -0.0843
              Bcc     0.0006     0.317     0.113     0.106  0.5499 -0.3835  0.7419
 
              Baa    -0.0004    -0.219    -0.078    -0.073  0.7825  0.5045  0.3649
    96 H(1)   Bbb    -0.0004    -0.187    -0.067    -0.062 -0.4177 -0.0093  0.9085
              Bcc     0.0008     0.405     0.145     0.135 -0.4617  0.8634 -0.2035
 
              Baa    -0.0003    -0.146    -0.052    -0.049  0.7180  0.6958  0.0179
    97 H(1)   Bbb    -0.0002    -0.120    -0.043    -0.040 -0.3114  0.2981  0.9023
              Bcc     0.0005     0.265     0.095     0.088 -0.6225  0.6534 -0.4307
 

 ---------------------------------------------------------------------------------

 1\1\GINC-M9-27-1\SP\UM06L\Gen\C41H46Cl1N4Ni2O3(2)\MALLA1\24-Aug-2022\0
 \\#m06l/gen pseudo=read integral=ultrafine temperature=308 scrf=(read)
 \\Title Card Required\\0,2\C,0,2.375427,-2.873813,2.522736\C,0,1.39520
 1,-2.771417,3.513879\C,0,0.18142,-2.095206,3.240521\C,0,0.013693,-1.50
 9663,1.922831\C,0,2.152313,-2.275838,1.267528\H,0,-0.767987,-2.409534,
 5.189838\H,0,3.323994,-3.397097,2.703192\H,0,1.549397,-3.220948,4.5070
 47\C,0,-0.893164,-1.986306,4.181814\C,0,-2.213206,-0.899124,2.479242\C
 ,0,-2.094715,-1.405238,3.789688\H,0,-2.965029,-1.36539,4.460787\N,0,-1
 .152719,-0.874451,1.588258\N,0,0.995377,-1.612742,0.982028\C,0,3.18800
 7,-2.364296,0.217597\C,0,-3.445112,-0.47227,1.866491\N,0,3.420852,-1.5
 13778,-0.72476\N,0,-3.495092,-0.186075,0.578703\Ni,0,-1.583621,0.19008
 5,-0.018593\C,0,0.264362,0.739886,0.013879\C,0,0.646814,1.704086,0.894
 368\C,0,-1.461715,0.436944,-2.223321\H,0,-2.226113,-0.212849,-2.680517
 \C,0,-1.884804,1.616657,-1.562996\H,0,-1.111562,2.344421,-1.265292\C,0
 ,-0.07374,0.074954,-2.486013\H,0,0.11804,-0.709445,-3.232849\C,0,1.006
 075,0.845422,-1.926484\H,0,0.910706,1.934321,-1.788968\H,0,-0.126305,2
 .011348,1.629194\C,0,-5.573974,0.144736,1.61487\H,0,-5.68652,1.226827,
 1.839862\H,0,-6.540438,-0.365513,1.78411\C,0,4.936929,-3.364494,-0.786
 255\H,0,4.917254,-4.295848,-1.384138\H,0,5.940761,-3.257034,-0.321642\
 C,0,4.477393,-2.100643,-1.574116\H,0,3.986203,-2.411282,-2.527028\C,0,
 -4.932941,-0.105533,0.228402\H,0,-5.107403,0.755088,-0.447647\O,0,3.95
 9653,-3.492404,0.279688\O,0,-4.604022,-0.409375,2.558363\Ni,0,0.57084,
 -0.919752,-0.806501\Cl,0,0.414574,-2.966898,-1.767149\C,0,5.614707,-1.
 106344,-1.968674\C,0,6.312957,-0.531364,-0.719024\H,0,5.583572,-0.0274
 63,-0.052109\H,0,6.829031,-1.315706,-0.125951\H,0,7.082459,0.212836,-1
 .013572\C,0,6.638172,-1.862206,-2.846348\H,0,6.154987,-2.294698,-3.748
 602\H,0,7.437825,-1.17299,-3.190193\H,0,7.132791,-2.689604,-2.294675\C
 ,0,5.004599,0.047125,-2.793097\H,0,4.287036,0.637317,-2.189009\H,0,5.7
 98857,0.737496,-3.147402\H,0,4.465358,-0.337039,-3.685128\C,0,-5.45338
 8,-1.404133,-0.497118\C,0,-5.36253,-2.645929,0.417036\H,0,-4.313899,-2
 .85503,0.713777\H,0,-5.971245,-2.544164,1.339169\H,0,-5.734177,-3.5407
 4,-0.124808\C,0,-4.612826,-1.662858,-1.763987\H,0,-4.671251,-0.8062,-2
 .465978\H,0,-3.547685,-1.836059,-1.509381\H,0,-4.987743,-2.561661,-2.2
 96911\C,0,-6.922855,-1.160803,-0.909178\H,0,-7.013202,-0.27644,-1.5751
 2\H,0,-7.318804,-2.04027,-1.458691\H,0,-7.586243,-0.99634,-0.03376\C,0
 ,1.895327,2.470991,0.971645\C,0,1.926876,3.684816,1.704333\C,0,3.1051,
 2.052503,0.348652\C,0,3.087475,4.469047,1.800456\H,0,1.009891,4.028747
 ,2.211511\C,0,4.265899,2.823454,0.437935\H,0,3.134365,1.08307,-0.17488
 6\C,0,4.271741,4.044609,1.156585\H,0,3.059011,5.404556,2.376995\H,0,5.
 203121,2.493937,-0.036341\C,0,5.521911,5.951099,1.895137\H,0,4.81639,6
 .708002,1.485014\H,0,5.307853,5.80882,2.978124\H,0,6.556995,6.323261,1
 .778544\O,0,5.4544,4.723381,1.178077\H,0,2.034147,0.526299,-2.168422\C
 ,0,-3.232903,2.221143,-1.661982\C,0,-4.12864,1.919287,-2.718491\C,0,-3
 .62387,3.210786,-0.722543\C,0,-5.37665,2.559206,-2.813853\H,0,-3.82904
 1,1.200316,-3.496597\C,0,-4.871897,3.844663,-0.813304\H,0,-2.933091,3.
 47309,0.095408\C,0,-5.758695,3.518162,-1.858365\H,0,-6.050346,2.314894
 ,-3.650682\H,0,-5.154071,4.605501,-0.067981\H,0,-6.735595,4.021018,-1.
 935647\\Version=ES64L-G16RevB.01\State=2-A\HF=-2834.1772045\S2=0.77020
 9\S2-1=0.\S2A=0.75034\RMSD=3.402e-09\Dipole=-1.2911501,2.6775193,1.696
 1378\Quadrupole=23.4440507,-15.7283331,-7.7157176,-2.4518606,1.3516146
 ,-3.8521869\PG=C01 [X(C41H46Cl1N4Ni2O3)]\\@


 IT IS A PROFOUNDLY ERRONEOUS TRUISM ... THAT WE SHOULD CULTIVATE
 THE HABIT OF THINKING OF WHAT WE ARE DOING.
 THE PRECISE OPPOSITE IS THE CASE.
 CIVILIZATION ADVANCES BY EXTENDING THE NUMBER OF IMPORTANT OPERATIONS
 WHICH WE CAN PERFORM WITHOUT THINKING ABOUT THEM.

                                    -- ALFRED NORTH WHITEHEAD
 Job cpu time:       1 days  8 hours 44 minutes 34.9 seconds.
 Elapsed time:       0 days  2 hours 43 minutes 57.2 seconds.
 File lengths (MBytes):  RWF=   3730 Int=      0 D2E=      0 Chk=    238 Scr=      1
 Normal termination of Gaussian 16 at Wed Aug 24 18:00:31 2022.
