 Entering Gaussian System, Link 0=g16
 Input=Pro_R_E_ts1.com
 Output=Pro_R_E_ts1.log
 Initial command:
 /apps/gaussian16/B.01/AVX2/g16/l1.exe "/tmp/49413048/Gau-8260.inp" -scrdir="/tmp/49413048/"
 Entering Link 1 = /apps/gaussian16/B.01/AVX2/g16/l1.exe PID=      8261.
  
 Copyright (c) 1988-2017, Gaussian, Inc.  All Rights Reserved.
  
 This is part of the Gaussian(R) 16 program.  It is based on
 the Gaussian(R) 09 system (copyright 2009, Gaussian, Inc.),
 the Gaussian(R) 03 system (copyright 2003, Gaussian, Inc.),
 the Gaussian(R) 98 system (copyright 1998, Gaussian, Inc.),
 the Gaussian(R) 94 system (copyright 1995, Gaussian, Inc.),
 the Gaussian 92(TM) system (copyright 1992, Gaussian, Inc.),
 the Gaussian 90(TM) system (copyright 1990, Gaussian, Inc.),
 the Gaussian 88(TM) system (copyright 1988, Gaussian, Inc.),
 the Gaussian 86(TM) system (copyright 1986, Carnegie Mellon
 University), and the Gaussian 82(TM) system (copyright 1983,
 Carnegie Mellon University). Gaussian is a federally registered
 trademark of Gaussian, Inc.
  
 This software contains proprietary and confidential information,
 including trade secrets, belonging to Gaussian, Inc.
  
 This software is provided under written license and may be
 used, copied, transmitted, or stored only in accord with that
 written license.
  
 The following legend is applicable only to US Government
 contracts under FAR:
  
                    RESTRICTED RIGHTS LEGEND
  
 Use, reproduction and disclosure by the US Government is
 subject to restrictions as set forth in subparagraphs (a)
 and (c) of the Commercial Computer Software - Restricted
 Rights clause in FAR 52.227-19.
  
 Gaussian, Inc.
 340 Quinnipiac St., Bldg. 40, Wallingford CT 06492
  
  
 ---------------------------------------------------------------
 Warning -- This program may not be used in any manner that
 competes with the business of Gaussian, Inc. or will provide
 assistance to any competitor of Gaussian, Inc.  The licensee
 of this program is prohibited from giving any competitor of
 Gaussian, Inc. access to this program.  By using this program,
 the user acknowledges that Gaussian, Inc. is engaged in the
 business of creating and licensing software in the field of
 computational chemistry and represents and warrants to the
 licensee that it is not a competitor of Gaussian, Inc. and that
 it will not use this program in any manner prohibited above.
 ---------------------------------------------------------------
  

 Cite this work as:
 Gaussian 16, Revision B.01,
 M. J. Frisch, G. W. Trucks, H. B. Schlegel, G. E. Scuseria, 
 M. A. Robb, J. R. Cheeseman, G. Scalmani, V. Barone, 
 G. A. Petersson, H. Nakatsuji, X. Li, M. Caricato, A. V. Marenich, 
 J. Bloino, B. G. Janesko, R. Gomperts, B. Mennucci, H. P. Hratchian, 
 J. V. Ortiz, A. F. Izmaylov, J. L. Sonnenberg, D. Williams-Young, 
 F. Ding, F. Lipparini, F. Egidi, J. Goings, B. Peng, A. Petrone, 
 T. Henderson, D. Ranasinghe, V. G. Zakrzewski, J. Gao, N. Rega, 
 G. Zheng, W. Liang, M. Hada, M. Ehara, K. Toyota, R. Fukuda, 
 J. Hasegawa, M. Ishida, T. Nakajima, Y. Honda, O. Kitao, H. Nakai, 
 T. Vreven, K. Throssell, J. A. Montgomery, Jr., J. E. Peralta, 
 F. Ogliaro, M. J. Bearpark, J. J. Heyd, E. N. Brothers, K. N. Kudin, 
 V. N. Staroverov, T. A. Keith, R. Kobayashi, J. Normand, 
 K. Raghavachari, A. P. Rendell, J. C. Burant, S. S. Iyengar, 
 J. Tomasi, M. Cossi, J. M. Millam, M. Klene, C. Adamo, R. Cammi, 
 J. W. Ochterski, R. L. Martin, K. Morokuma, O. Farkas, 
 J. B. Foresman, and D. J. Fox, Gaussian, Inc., Wallingford CT, 2016.
 
 ******************************************
 Gaussian 16:  ES64L-G16RevB.01 20-Dec-2017
                20-May-2022 
 ******************************************
 %nprocshared=12
 Will use up to   12 processors via shared memory.
 %mem=20GB
 %chk=Pro_R_E_ts1.chk
 ----------------------------------------------------------------------
 #opt=(calcfc,ts,noeigen) freq=noraman bp86/gen pseudo=read integral=ul
 trafine temperature=308 scrf=(read)
 ----------------------------------------------------------------------
 1/5=1,10=4,11=1,18=20,26=6,38=1,40=2,112=308000/1,3;
 2/9=110,12=2,17=6,18=5,40=1/2;
 3/5=7,11=2,16=1,17=8,25=1,30=1,70=2203,71=2,74=404,75=-5,140=1/1,2,3;
 4//1;
 5/5=2,38=5/2;
 8/6=4,10=90,11=11/1;
 11/6=1,8=1,9=11,15=111,16=1/1,2,10;
 10/6=1,13=1/2;
 6/7=2,8=2,9=2,10=2,28=1/1;
 7/10=1,18=20,25=1/1,2,3,16;
 1/5=1,10=4,11=1,18=20,26=6/3(2);
 2/9=110/2;
 99//99;
 2/9=110/2;
 3/5=7,6=1,11=2,16=1,17=8,25=1,30=1,70=2205,71=1,74=404,75=-5,82=7/1,2,3;
 4/5=5,16=3,69=1/1;
 5/5=2,38=5/2;
 7//1,2,3,16;
 1/5=1,11=1,18=20,26=6/3(-5);
 2/9=110/2;
 6/7=2,8=2,9=2,10=2,19=2,28=1/1;
 99/9=1/99;
 -------------------
 Title Card Required
 -------------------
 Symbolic Z-matrix:
 Charge =  0 Multiplicity = 2
 C                    -2.373    -1.296    -3.216 
 C                    -1.452    -0.707    -4.086 
 C                    -0.204    -0.243    -3.604 
 C                     0.046    -0.374    -2.192 
 C                    -2.049    -1.394    -1.859 
 H                     0.677     0.424    -5.485 
 H                    -3.331    -1.68     -3.569 
 H                    -1.677    -0.618    -5.152 
 C                     0.842     0.301    -4.412 
 C                     2.262     0.405    -2.466 
 C                     2.075     0.599    -3.846 
 H                     2.914     0.943    -4.454 
 N                     1.224     0.007    -1.639 
 N                    -0.861    -0.933    -1.363 
 C                    -2.842    -2.029    -0.82 
 C                     3.48      0.407    -1.728 
 N                    -2.534    -1.882     0.44 
 N                     3.466    -0.014    -0.464 
 Ni                    1.635    -0.08      0.225 
 C                    -0.131     0.571     0.665 
 C                    -0.638     1.801     0.399 
 C                     2.       -0.236     2.17 
 H                     3.088    -0.255     2.273 
 C                     1.272     0.988     2.353 
 H                     0.334     0.908     2.907 
 C                     1.279    -1.482     2.121 
 H                     1.841    -2.392     1.902 
 C                    -0.097    -1.635     2.451 
 H                    -0.574    -0.869     3.071 
 H                     0.067     2.63      0.579 
 C                     5.597     0.734    -1.099 
 H                     5.72      1.772    -0.749 
 H                     6.559     0.349    -1.458 
 C                    -4.122    -3.613     0.098 
 H                    -3.7      -4.621    -0.029 
 H                    -5.213    -3.673     0.205 
 C                    -3.402    -2.804     1.215 
 H                    -2.734    -3.473     1.786 
 C                     4.888    -0.162    -0.055 
 H                     5.03      0.247     0.961 
 O                    -3.844    -2.877    -1.143 
 O                     4.682     0.758    -2.245 
 Ni                   -0.507    -1.273     0.547 
 Cl                   -0.032    -3.579     0.065 
 C                    -4.358    -2.096     2.23 
 C                    -5.385    -1.196     1.512 
 H                    -4.884    -0.398     0.944 
 H                    -6.03     -1.761     0.82 
 H                    -6.044    -0.712     2.251 
 C                    -5.096    -3.191     3.032 
 H                    -4.384    -3.851     3.555 
 H                    -5.749    -2.731     3.792 
 H                    -5.735    -3.821     2.391 
 C                    -3.528    -1.238     3.205 
 H                    -2.972    -0.455     2.668 
 H                    -4.189    -0.75      3.94 
 H                    -2.803    -1.856     3.759 
 C                     5.392    -1.65     -0.043 
 C                     5.327    -2.28     -1.45 
 H                     4.293    -2.296    -1.83 
 H                     5.958    -1.75     -2.181 
 H                     5.677    -3.324    -1.406 
 C                     4.519    -2.486     0.912 
 H                     4.527    -2.074     1.935 
 H                     3.48     -2.533     0.554 
 H                     4.9      -3.519     0.968 
 C                     6.847    -1.657     0.476 
 H                     6.917    -1.212     1.483 
 H                     7.218    -2.693     0.543 
 H                     7.537    -1.108    -0.187 
 C                    -1.935     2.276    -0.073 
 C                    -2.071     3.645    -0.402 
 C                    -3.081     1.459    -0.225 
 C                    -3.271     4.178    -0.883 
 H                    -1.207     4.306    -0.284 
 C                    -4.281     1.976    -0.699 
 H                    -3.012     0.407     0.054 
 C                    -4.389     3.34     -1.039 
 H                    -3.324     5.24     -1.129 
 H                    -5.165     1.344    -0.814 
 C                    -5.769     5.122    -1.85 
 H                    -5.6       5.783    -0.98 
 H                    -5.085     5.412    -2.667 
 H                    -6.807     5.229    -2.19 
 O                    -5.617     3.744    -1.501 
 H                    -0.428    -2.66      2.637 
 C                     1.87      2.322     2.441 
 C                     3.09      2.671     1.813 
 C                     1.196     3.329     3.173 
 C                     3.634     3.949     1.958 
 H                     3.587     1.933     1.18 
 C                     1.736     4.611     3.309 
 H                     0.241     3.087     3.65 
 C                     2.963     4.927     2.709 
 H                     4.581     4.193     1.469 
 H                     1.198     5.367     3.887 
 H                     3.388     5.928     2.815 
 

 GradGradGradGradGradGradGradGradGradGradGradGradGradGradGradGradGradGrad
 Berny optimization.
 Initialization pass.
                           ----------------------------
                           !    Initial Parameters    !
                           ! (Angstroms and Degrees)  !
 --------------------------                            --------------------------
 ! Name  Definition              Value          Derivative Info.                !
 --------------------------------------------------------------------------------
 ! R1    R(1,2)                  1.3972         calculate D2E/DX2 analytically  !
 ! R2    R(1,5)                  1.3986         calculate D2E/DX2 analytically  !
 ! R3    R(1,7)                  1.0908         calculate D2E/DX2 analytically  !
 ! R4    R(2,3)                  1.416          calculate D2E/DX2 analytically  !
 ! R5    R(2,8)                  1.0931         calculate D2E/DX2 analytically  !
 ! R6    R(3,4)                  1.4399         calculate D2E/DX2 analytically  !
 ! R7    R(3,9)                  1.4293         calculate D2E/DX2 analytically  !
 ! R8    R(4,13)                 1.356          calculate D2E/DX2 analytically  !
 ! R9    R(4,14)                 1.35           calculate D2E/DX2 analytically  !
 ! R10   R(5,14)                 1.3674         calculate D2E/DX2 analytically  !
 ! R11   R(5,15)                 1.4531         calculate D2E/DX2 analytically  !
 ! R12   R(6,9)                  1.0926         calculate D2E/DX2 analytically  !
 ! R13   R(9,11)                 1.389          calculate D2E/DX2 analytically  !
 ! R14   R(10,11)                1.4061         calculate D2E/DX2 analytically  !
 ! R15   R(10,13)                1.3856         calculate D2E/DX2 analytically  !
 ! R16   R(10,16)                1.4241         calculate D2E/DX2 analytically  !
 ! R17   R(11,12)                1.0918         calculate D2E/DX2 analytically  !
 ! R18   R(13,19)                1.9108         calculate D2E/DX2 analytically  !
 ! R19   R(14,43)                1.9721         calculate D2E/DX2 analytically  !
 ! R20   R(15,17)                1.3054         calculate D2E/DX2 analytically  !
 ! R21   R(15,41)                1.3518         calculate D2E/DX2 analytically  !
 ! R22   R(16,18)                1.3323         calculate D2E/DX2 analytically  !
 ! R23   R(16,42)                1.3547         calculate D2E/DX2 analytically  !
 ! R24   R(17,37)                1.4846         calculate D2E/DX2 analytically  !
 ! R25   R(17,43)                2.1192         calculate D2E/DX2 analytically  !
 ! R26   R(18,19)                1.9575         calculate D2E/DX2 analytically  !
 ! R27   R(18,39)                1.487          calculate D2E/DX2 analytically  !
 ! R28   R(19,20)                1.9329         calculate D2E/DX2 analytically  !
 ! R29   R(19,22)                1.9851         calculate D2E/DX2 analytically  !
 ! R30   R(19,43)                2.4729         calculate D2E/DX2 analytically  !
 ! R31   R(20,21)                1.3567         calculate D2E/DX2 analytically  !
 ! R32   R(20,43)                1.8856         calculate D2E/DX2 analytically  !
 ! R33   R(21,30)                1.103          calculate D2E/DX2 analytically  !
 ! R34   R(21,71)                1.4597         calculate D2E/DX2 analytically  !
 ! R35   R(22,23)                1.093          calculate D2E/DX2 analytically  !
 ! R36   R(22,24)                1.4358         calculate D2E/DX2 analytically  !
 ! R37   R(22,26)                1.4404         calculate D2E/DX2 analytically  !
 ! R38   R(24,25)                1.0923         calculate D2E/DX2 analytically  !
 ! R39   R(24,87)                1.4645         calculate D2E/DX2 analytically  !
 ! R40   R(26,27)                1.0917         calculate D2E/DX2 analytically  !
 ! R41   R(26,28)                1.4233         calculate D2E/DX2 analytically  !
 ! R42   R(28,29)                1.0948         calculate D2E/DX2 analytically  !
 ! R43   R(28,43)                1.981          calculate D2E/DX2 analytically  !
 ! R44   R(28,86)                1.0931         calculate D2E/DX2 analytically  !
 ! R45   R(31,32)                1.1023         calculate D2E/DX2 analytically  !
 ! R46   R(31,33)                1.0966         calculate D2E/DX2 analytically  !
 ! R47   R(31,39)                1.5477         calculate D2E/DX2 analytically  !
 ! R48   R(31,42)                1.4667         calculate D2E/DX2 analytically  !
 ! R49   R(34,35)                1.1001         calculate D2E/DX2 analytically  !
 ! R50   R(34,36)                1.0979         calculate D2E/DX2 analytically  !
 ! R51   R(34,37)                1.5558         calculate D2E/DX2 analytically  !
 ! R52   R(34,41)                1.4694         calculate D2E/DX2 analytically  !
 ! R53   R(37,38)                1.1045         calculate D2E/DX2 analytically  !
 ! R54   R(37,45)                1.5638         calculate D2E/DX2 analytically  !
 ! R55   R(39,40)                1.1044         calculate D2E/DX2 analytically  !
 ! R56   R(39,58)                1.5711         calculate D2E/DX2 analytically  !
 ! R57   R(43,44)                2.4032         calculate D2E/DX2 analytically  !
 ! R58   R(45,46)                1.5428         calculate D2E/DX2 analytically  !
 ! R59   R(45,50)                1.545          calculate D2E/DX2 analytically  !
 ! R60   R(45,54)                1.5413         calculate D2E/DX2 analytically  !
 ! R61   R(46,47)                1.1002         calculate D2E/DX2 analytically  !
 ! R62   R(46,48)                1.1019         calculate D2E/DX2 analytically  !
 ! R63   R(46,49)                1.1021         calculate D2E/DX2 analytically  !
 ! R64   R(50,51)                1.1028         calculate D2E/DX2 analytically  !
 ! R65   R(50,52)                1.1025         calculate D2E/DX2 analytically  !
 ! R66   R(50,53)                1.1028         calculate D2E/DX2 analytically  !
 ! R67   R(54,55)                1.1003         calculate D2E/DX2 analytically  !
 ! R68   R(54,56)                1.1024         calculate D2E/DX2 analytically  !
 ! R69   R(54,57)                1.102          calculate D2E/DX2 analytically  !
 ! R70   R(58,59)                1.543          calculate D2E/DX2 analytically  !
 ! R71   R(58,63)                1.5405         calculate D2E/DX2 analytically  !
 ! R72   R(58,67)                1.5448         calculate D2E/DX2 analytically  !
 ! R73   R(59,60)                1.1017         calculate D2E/DX2 analytically  !
 ! R74   R(59,61)                1.1016         calculate D2E/DX2 analytically  !
 ! R75   R(59,62)                1.102          calculate D2E/DX2 analytically  !
 ! R76   R(63,64)                1.1029         calculate D2E/DX2 analytically  !
 ! R77   R(63,65)                1.1            calculate D2E/DX2 analytically  !
 ! R78   R(63,66)                1.1024         calculate D2E/DX2 analytically  !
 ! R79   R(67,68)                1.1032         calculate D2E/DX2 analytically  !
 ! R80   R(67,69)                1.1025         calculate D2E/DX2 analytically  !
 ! R81   R(67,70)                1.1032         calculate D2E/DX2 analytically  !
 ! R82   R(71,72)                1.4145         calculate D2E/DX2 analytically  !
 ! R83   R(71,73)                1.4156         calculate D2E/DX2 analytically  !
 ! R84   R(72,74)                1.3984         calculate D2E/DX2 analytically  !
 ! R85   R(72,75)                1.0942         calculate D2E/DX2 analytically  !
 ! R86   R(73,76)                1.39           calculate D2E/DX2 analytically  !
 ! R87   R(73,77)                1.0906         calculate D2E/DX2 analytically  !
 ! R88   R(74,78)                1.4059         calculate D2E/DX2 analytically  !
 ! R89   R(74,79)                1.0914         calculate D2E/DX2 analytically  !
 ! R90   R(76,78)                1.4099         calculate D2E/DX2 analytically  !
 ! R91   R(76,80)                1.0928         calculate D2E/DX2 analytically  !
 ! R92   R(78,85)                1.3728         calculate D2E/DX2 analytically  !
 ! R93   R(81,82)                1.1056         calculate D2E/DX2 analytically  !
 ! R94   R(81,83)                1.1043         calculate D2E/DX2 analytically  !
 ! R95   R(81,84)                1.0975         calculate D2E/DX2 analytically  !
 ! R96   R(81,85)                1.4296         calculate D2E/DX2 analytically  !
 ! R97   R(87,88)                1.4158         calculate D2E/DX2 analytically  !
 ! R98   R(87,89)                1.4157         calculate D2E/DX2 analytically  !
 ! R99   R(88,90)                1.3965         calculate D2E/DX2 analytically  !
 ! R100  R(88,91)                1.0919         calculate D2E/DX2 analytically  !
 ! R101  R(89,92)                1.3977         calculate D2E/DX2 analytically  !
 ! R102  R(89,93)                1.0946         calculate D2E/DX2 analytically  !
 ! R103  R(90,94)                1.4038         calculate D2E/DX2 analytically  !
 ! R104  R(90,95)                1.0934         calculate D2E/DX2 analytically  !
 ! R105  R(92,94)                1.4019         calculate D2E/DX2 analytically  !
 ! R106  R(92,96)                1.0932         calculate D2E/DX2 analytically  !
 ! R107  R(94,97)                1.0926         calculate D2E/DX2 analytically  !
 ! A1    A(2,1,5)              118.7512         calculate D2E/DX2 analytically  !
 ! A2    A(2,1,7)              121.7246         calculate D2E/DX2 analytically  !
 ! A3    A(5,1,7)              119.5241         calculate D2E/DX2 analytically  !
 ! A4    A(1,2,3)              120.4745         calculate D2E/DX2 analytically  !
 ! A5    A(1,2,8)              120.39           calculate D2E/DX2 analytically  !
 ! A6    A(3,2,8)              119.1224         calculate D2E/DX2 analytically  !
 ! A7    A(2,3,4)              117.1933         calculate D2E/DX2 analytically  !
 ! A8    A(2,3,9)              125.2592         calculate D2E/DX2 analytically  !
 ! A9    A(4,3,9)              117.5105         calculate D2E/DX2 analytically  !
 ! A10   A(3,4,13)             121.6807         calculate D2E/DX2 analytically  !
 ! A11   A(3,4,14)             121.5475         calculate D2E/DX2 analytically  !
 ! A12   A(13,4,14)            116.7179         calculate D2E/DX2 analytically  !
 ! A13   A(1,5,14)             121.9771         calculate D2E/DX2 analytically  !
 ! A14   A(1,5,15)             126.723          calculate D2E/DX2 analytically  !
 ! A15   A(14,5,15)            111.2279         calculate D2E/DX2 analytically  !
 ! A16   A(3,9,6)              119.1775         calculate D2E/DX2 analytically  !
 ! A17   A(3,9,11)             120.0605         calculate D2E/DX2 analytically  !
 ! A18   A(6,9,11)             120.6694         calculate D2E/DX2 analytically  !
 ! A19   A(11,10,13)           121.7225         calculate D2E/DX2 analytically  !
 ! A20   A(11,10,16)           128.4736         calculate D2E/DX2 analytically  !
 ! A21   A(13,10,16)           109.3792         calculate D2E/DX2 analytically  !
 ! A22   A(9,11,10)            119.2339         calculate D2E/DX2 analytically  !
 ! A23   A(9,11,12)            121.5224         calculate D2E/DX2 analytically  !
 ! A24   A(10,11,12)           119.1994         calculate D2E/DX2 analytically  !
 ! A25   A(4,13,10)            119.2172         calculate D2E/DX2 analytically  !
 ! A26   A(4,13,19)            124.8842         calculate D2E/DX2 analytically  !
 ! A27   A(10,13,19)           115.7345         calculate D2E/DX2 analytically  !
 ! A28   A(4,14,5)             120.0374         calculate D2E/DX2 analytically  !
 ! A29   A(4,14,43)            123.0627         calculate D2E/DX2 analytically  !
 ! A30   A(5,14,43)            116.6883         calculate D2E/DX2 analytically  !
 ! A31   A(5,15,17)            120.8086         calculate D2E/DX2 analytically  !
 ! A32   A(5,15,41)            120.5159         calculate D2E/DX2 analytically  !
 ! A33   A(17,15,41)           118.4343         calculate D2E/DX2 analytically  !
 ! A34   A(10,16,18)           118.8289         calculate D2E/DX2 analytically  !
 ! A35   A(10,16,42)           124.1552         calculate D2E/DX2 analytically  !
 ! A36   A(18,16,42)           116.952          calculate D2E/DX2 analytically  !
 ! A37   A(15,17,37)           107.2163         calculate D2E/DX2 analytically  !
 ! A38   A(15,17,43)           107.8648         calculate D2E/DX2 analytically  !
 ! A39   A(37,17,43)           135.3429         calculate D2E/DX2 analytically  !
 ! A40   A(16,18,19)           110.7576         calculate D2E/DX2 analytically  !
 ! A41   A(16,18,39)           106.3997         calculate D2E/DX2 analytically  !
 ! A42   A(19,18,39)           142.5912         calculate D2E/DX2 analytically  !
 ! A43   A(13,19,18)            81.7376         calculate D2E/DX2 analytically  !
 ! A44   A(13,19,20)            90.5848         calculate D2E/DX2 analytically  !
 ! A45   A(13,19,43)            87.8609         calculate D2E/DX2 analytically  !
 ! A46   A(18,19,20)           157.427          calculate D2E/DX2 analytically  !
 ! A47   A(18,19,22)           100.1099         calculate D2E/DX2 analytically  !
 ! A48   A(18,19,43)           150.7317         calculate D2E/DX2 analytically  !
 ! A49   A(20,19,22)            88.3624         calculate D2E/DX2 analytically  !
 ! A50   A(22,19,43)            89.6432         calculate D2E/DX2 analytically  !
 ! A51   A(19,20,21)           127.0228         calculate D2E/DX2 analytically  !
 ! A52   A(21,20,43)           143.1101         calculate D2E/DX2 analytically  !
 ! A53   A(20,21,30)           114.2379         calculate D2E/DX2 analytically  !
 ! A54   A(20,21,71)           133.6673         calculate D2E/DX2 analytically  !
 ! A55   A(30,21,71)           112.0935         calculate D2E/DX2 analytically  !
 ! A56   A(19,22,23)           106.0646         calculate D2E/DX2 analytically  !
 ! A57   A(19,22,24)            87.9747         calculate D2E/DX2 analytically  !
 ! A58   A(19,22,26)            86.71           calculate D2E/DX2 analytically  !
 ! A59   A(23,22,24)           120.497          calculate D2E/DX2 analytically  !
 ! A60   A(23,22,26)           119.1056         calculate D2E/DX2 analytically  !
 ! A61   A(24,22,26)           119.2062         calculate D2E/DX2 analytically  !
 ! A62   A(22,24,25)           115.9506         calculate D2E/DX2 analytically  !
 ! A63   A(22,24,87)           125.2473         calculate D2E/DX2 analytically  !
 ! A64   A(25,24,87)           112.7597         calculate D2E/DX2 analytically  !
 ! A65   A(22,26,27)           118.0463         calculate D2E/DX2 analytically  !
 ! A66   A(22,26,28)           124.683          calculate D2E/DX2 analytically  !
 ! A67   A(27,26,28)           117.0382         calculate D2E/DX2 analytically  !
 ! A68   A(26,28,29)           118.5092         calculate D2E/DX2 analytically  !
 ! A69   A(26,28,43)            87.5699         calculate D2E/DX2 analytically  !
 ! A70   A(26,28,86)           115.6596         calculate D2E/DX2 analytically  !
 ! A71   A(29,28,43)           109.0418         calculate D2E/DX2 analytically  !
 ! A72   A(29,28,86)           115.327          calculate D2E/DX2 analytically  !
 ! A73   A(43,28,86)           105.7973         calculate D2E/DX2 analytically  !
 ! A74   A(32,31,33)           109.6736         calculate D2E/DX2 analytically  !
 ! A75   A(32,31,39)           112.4628         calculate D2E/DX2 analytically  !
 ! A76   A(32,31,42)           107.5958         calculate D2E/DX2 analytically  !
 ! A77   A(33,31,39)           114.7994         calculate D2E/DX2 analytically  !
 ! A78   A(33,31,42)           107.2914         calculate D2E/DX2 analytically  !
 ! A79   A(39,31,42)           104.5217         calculate D2E/DX2 analytically  !
 ! A80   A(35,34,36)           110.0211         calculate D2E/DX2 analytically  !
 ! A81   A(35,34,37)           112.4454         calculate D2E/DX2 analytically  !
 ! A82   A(35,34,41)           106.7906         calculate D2E/DX2 analytically  !
 ! A83   A(36,34,37)           114.729          calculate D2E/DX2 analytically  !
 ! A84   A(36,34,41)           107.3195         calculate D2E/DX2 analytically  !
 ! A85   A(37,34,41)           104.9723         calculate D2E/DX2 analytically  !
 ! A86   A(17,37,34)           102.6333         calculate D2E/DX2 analytically  !
 ! A87   A(17,37,38)           107.0041         calculate D2E/DX2 analytically  !
 ! A88   A(17,37,45)           114.524          calculate D2E/DX2 analytically  !
 ! A89   A(34,37,38)           109.6399         calculate D2E/DX2 analytically  !
 ! A90   A(34,37,45)           114.7402         calculate D2E/DX2 analytically  !
 ! A91   A(38,37,45)           107.9645         calculate D2E/DX2 analytically  !
 ! A92   A(18,39,31)           101.2396         calculate D2E/DX2 analytically  !
 ! A93   A(18,39,40)           109.8235         calculate D2E/DX2 analytically  !
 ! A94   A(18,39,58)           113.7742         calculate D2E/DX2 analytically  !
 ! A95   A(31,39,40)           110.3195         calculate D2E/DX2 analytically  !
 ! A96   A(31,39,58)           113.9851         calculate D2E/DX2 analytically  !
 ! A97   A(40,39,58)           107.6065         calculate D2E/DX2 analytically  !
 ! A98   A(15,41,34)           104.6341         calculate D2E/DX2 analytically  !
 ! A99   A(16,42,31)           104.5427         calculate D2E/DX2 analytically  !
 ! A100  A(14,43,17)            80.1509         calculate D2E/DX2 analytically  !
 ! A101  A(14,43,19)            86.9159         calculate D2E/DX2 analytically  !
 ! A102  A(14,43,20)            85.8597         calculate D2E/DX2 analytically  !
 ! A103  A(14,43,44)            90.3817         calculate D2E/DX2 analytically  !
 ! A104  A(17,43,19)           163.8573         calculate D2E/DX2 analytically  !
 ! A105  A(17,43,20)           118.3535         calculate D2E/DX2 analytically  !
 ! A106  A(17,43,28)           101.1849         calculate D2E/DX2 analytically  !
 ! A107  A(17,43,44)            84.4439         calculate D2E/DX2 analytically  !
 ! A108  A(19,43,28)            91.9505         calculate D2E/DX2 analytically  !
 ! A109  A(19,43,44)           105.4023         calculate D2E/DX2 analytically  !
 ! A110  A(20,43,28)            94.4325         calculate D2E/DX2 analytically  !
 ! A111  A(20,43,44)           155.7116         calculate D2E/DX2 analytically  !
 ! A112  A(28,43,44)            88.6545         calculate D2E/DX2 analytically  !
 ! A113  A(37,45,46)           111.6536         calculate D2E/DX2 analytically  !
 ! A114  A(37,45,50)           107.9432         calculate D2E/DX2 analytically  !
 ! A115  A(37,45,54)           109.4756         calculate D2E/DX2 analytically  !
 ! A116  A(46,45,50)           109.698          calculate D2E/DX2 analytically  !
 ! A117  A(46,45,54)           109.1547         calculate D2E/DX2 analytically  !
 ! A118  A(50,45,54)           108.8686         calculate D2E/DX2 analytically  !
 ! A119  A(45,46,47)           111.116          calculate D2E/DX2 analytically  !
 ! A120  A(45,46,48)           112.508          calculate D2E/DX2 analytically  !
 ! A121  A(45,46,49)           110.0085         calculate D2E/DX2 analytically  !
 ! A122  A(47,46,48)           108.3157         calculate D2E/DX2 analytically  !
 ! A123  A(47,46,49)           107.4535         calculate D2E/DX2 analytically  !
 ! A124  A(48,46,49)           107.234          calculate D2E/DX2 analytically  !
 ! A125  A(45,50,51)           111.2212         calculate D2E/DX2 analytically  !
 ! A126  A(45,50,52)           110.1842         calculate D2E/DX2 analytically  !
 ! A127  A(45,50,53)           112.3313         calculate D2E/DX2 analytically  !
 ! A128  A(51,50,52)           107.7693         calculate D2E/DX2 analytically  !
 ! A129  A(51,50,53)           107.9316         calculate D2E/DX2 analytically  !
 ! A130  A(52,50,53)           107.2076         calculate D2E/DX2 analytically  !
 ! A131  A(45,54,55)           111.0714         calculate D2E/DX2 analytically  !
 ! A132  A(45,54,56)           110.1993         calculate D2E/DX2 analytically  !
 ! A133  A(45,54,57)           111.1062         calculate D2E/DX2 analytically  !
 ! A134  A(55,54,56)           108.2628         calculate D2E/DX2 analytically  !
 ! A135  A(55,54,57)           108.179          calculate D2E/DX2 analytically  !
 ! A136  A(56,54,57)           107.9108         calculate D2E/DX2 analytically  !
 ! A137  A(39,58,59)           111.4833         calculate D2E/DX2 analytically  !
 ! A138  A(39,58,63)           109.6898         calculate D2E/DX2 analytically  !
 ! A139  A(39,58,67)           107.9993         calculate D2E/DX2 analytically  !
 ! A140  A(59,58,63)           108.654          calculate D2E/DX2 analytically  !
 ! A141  A(59,58,67)           110.132          calculate D2E/DX2 analytically  !
 ! A142  A(63,58,67)           108.8461         calculate D2E/DX2 analytically  !
 ! A143  A(58,59,60)           111.0991         calculate D2E/DX2 analytically  !
 ! A144  A(58,59,61)           112.6156         calculate D2E/DX2 analytically  !
 ! A145  A(58,59,62)           109.6959         calculate D2E/DX2 analytically  !
 ! A146  A(60,59,61)           108.4038         calculate D2E/DX2 analytically  !
 ! A147  A(60,59,62)           107.3433         calculate D2E/DX2 analytically  !
 ! A148  A(61,59,62)           107.4806         calculate D2E/DX2 analytically  !
 ! A149  A(58,63,64)           111.6045         calculate D2E/DX2 analytically  !
 ! A150  A(58,63,65)           110.8992         calculate D2E/DX2 analytically  !
 ! A151  A(58,63,66)           110.1296         calculate D2E/DX2 analytically  !
 ! A152  A(64,63,65)           108.948          calculate D2E/DX2 analytically  !
 ! A153  A(64,63,66)           107.4824         calculate D2E/DX2 analytically  !
 ! A154  A(65,63,66)           107.6343         calculate D2E/DX2 analytically  !
 ! A155  A(58,67,68)           111.3838         calculate D2E/DX2 analytically  !
 ! A156  A(58,67,69)           109.9763         calculate D2E/DX2 analytically  !
 ! A157  A(58,67,70)           112.6392         calculate D2E/DX2 analytically  !
 ! A158  A(68,67,69)           107.592          calculate D2E/DX2 analytically  !
 ! A159  A(68,67,70)           107.9483         calculate D2E/DX2 analytically  !
 ! A160  A(69,67,70)           107.0788         calculate D2E/DX2 analytically  !
 ! A161  A(21,71,72)           118.3973         calculate D2E/DX2 analytically  !
 ! A162  A(21,71,73)           124.4889         calculate D2E/DX2 analytically  !
 ! A163  A(72,71,73)           117.1136         calculate D2E/DX2 analytically  !
 ! A164  A(71,72,74)           122.0999         calculate D2E/DX2 analytically  !
 ! A165  A(71,72,75)           118.9231         calculate D2E/DX2 analytically  !
 ! A166  A(74,72,75)           118.975          calculate D2E/DX2 analytically  !
 ! A167  A(71,73,76)           121.3903         calculate D2E/DX2 analytically  !
 ! A168  A(71,73,77)           118.558          calculate D2E/DX2 analytically  !
 ! A169  A(76,73,77)           120.0446         calculate D2E/DX2 analytically  !
 ! A170  A(72,74,78)           119.5637         calculate D2E/DX2 analytically  !
 ! A171  A(72,74,79)           119.3465         calculate D2E/DX2 analytically  !
 ! A172  A(78,74,79)           121.0897         calculate D2E/DX2 analytically  !
 ! A173  A(73,76,78)           120.5456         calculate D2E/DX2 analytically  !
 ! A174  A(73,76,80)           121.2772         calculate D2E/DX2 analytically  !
 ! A175  A(78,76,80)           118.1765         calculate D2E/DX2 analytically  !
 ! A176  A(74,78,76)           119.2745         calculate D2E/DX2 analytically  !
 ! A177  A(74,78,85)           124.9785         calculate D2E/DX2 analytically  !
 ! A178  A(76,78,85)           115.7462         calculate D2E/DX2 analytically  !
 ! A179  A(82,81,83)           109.2987         calculate D2E/DX2 analytically  !
 ! A180  A(82,81,84)           109.2724         calculate D2E/DX2 analytically  !
 ! A181  A(82,81,85)           111.5876         calculate D2E/DX2 analytically  !
 ! A182  A(83,81,84)           109.3309         calculate D2E/DX2 analytically  !
 ! A183  A(83,81,85)           111.5855         calculate D2E/DX2 analytically  !
 ! A184  A(84,81,85)           105.6739         calculate D2E/DX2 analytically  !
 ! A185  A(78,85,81)           117.4466         calculate D2E/DX2 analytically  !
 ! A186  A(24,87,88)           123.3473         calculate D2E/DX2 analytically  !
 ! A187  A(24,87,89)           118.9852         calculate D2E/DX2 analytically  !
 ! A188  A(88,87,89)           117.6619         calculate D2E/DX2 analytically  !
 ! A189  A(87,88,90)           121.0099         calculate D2E/DX2 analytically  !
 ! A190  A(87,88,91)           118.8637         calculate D2E/DX2 analytically  !
 ! A191  A(90,88,91)           120.0922         calculate D2E/DX2 analytically  !
 ! A192  A(87,89,92)           121.2519         calculate D2E/DX2 analytically  !
 ! A193  A(87,89,93)           118.9107         calculate D2E/DX2 analytically  !
 ! A194  A(92,89,93)           119.8319         calculate D2E/DX2 analytically  !
 ! A195  A(88,90,94)           120.4575         calculate D2E/DX2 analytically  !
 ! A196  A(88,90,95)           119.6816         calculate D2E/DX2 analytically  !
 ! A197  A(94,90,95)           119.8532         calculate D2E/DX2 analytically  !
 ! A198  A(89,92,94)           120.2145         calculate D2E/DX2 analytically  !
 ! A199  A(89,92,96)           119.71           calculate D2E/DX2 analytically  !
 ! A200  A(94,92,96)           120.0754         calculate D2E/DX2 analytically  !
 ! A201  A(90,94,92)           119.358          calculate D2E/DX2 analytically  !
 ! A202  A(90,94,97)           120.2795         calculate D2E/DX2 analytically  !
 ! A203  A(92,94,97)           120.3588         calculate D2E/DX2 analytically  !
 ! A204  L(13,19,22,18,-1)     181.8474         calculate D2E/DX2 analytically  !
 ! A205  L(14,43,28,17,-1)     181.3358         calculate D2E/DX2 analytically  !
 ! A206  L(13,19,22,18,-2)     181.8778         calculate D2E/DX2 analytically  !
 ! A207  L(14,43,28,17,-2)     178.8762         calculate D2E/DX2 analytically  !
 ! D1    D(5,1,2,3)              1.2306         calculate D2E/DX2 analytically  !
 ! D2    D(5,1,2,8)            179.9052         calculate D2E/DX2 analytically  !
 ! D3    D(7,1,2,3)           -178.648          calculate D2E/DX2 analytically  !
 ! D4    D(7,1,2,8)              0.0265         calculate D2E/DX2 analytically  !
 ! D5    D(2,1,5,14)            -0.0785         calculate D2E/DX2 analytically  !
 ! D6    D(2,1,5,15)          -176.7148         calculate D2E/DX2 analytically  !
 ! D7    D(7,1,5,14)           179.8029         calculate D2E/DX2 analytically  !
 ! D8    D(7,1,5,15)             3.1666         calculate D2E/DX2 analytically  !
 ! D9    D(1,2,3,4)             -1.6329         calculate D2E/DX2 analytically  !
 ! D10   D(1,2,3,9)            176.0899         calculate D2E/DX2 analytically  !
 ! D11   D(8,2,3,4)            179.676          calculate D2E/DX2 analytically  !
 ! D12   D(8,2,3,9)             -2.6013         calculate D2E/DX2 analytically  !
 ! D13   D(2,3,4,13)           178.1891         calculate D2E/DX2 analytically  !
 ! D14   D(2,3,4,14)             0.9473         calculate D2E/DX2 analytically  !
 ! D15   D(9,3,4,13)             0.2856         calculate D2E/DX2 analytically  !
 ! D16   D(9,3,4,14)          -176.9562         calculate D2E/DX2 analytically  !
 ! D17   D(2,3,9,6)              3.0351         calculate D2E/DX2 analytically  !
 ! D18   D(2,3,9,11)          -173.4898         calculate D2E/DX2 analytically  !
 ! D19   D(4,3,9,6)           -179.2488         calculate D2E/DX2 analytically  !
 ! D20   D(4,3,9,11)             4.2264         calculate D2E/DX2 analytically  !
 ! D21   D(3,4,13,10)           -6.6596         calculate D2E/DX2 analytically  !
 ! D22   D(3,4,13,19)          178.2038         calculate D2E/DX2 analytically  !
 ! D23   D(14,4,13,10)         170.7089         calculate D2E/DX2 analytically  !
 ! D24   D(14,4,13,19)          -4.4276         calculate D2E/DX2 analytically  !
 ! D25   D(3,4,14,5)             0.1608         calculate D2E/DX2 analytically  !
 ! D26   D(3,4,14,43)          174.6977         calculate D2E/DX2 analytically  !
 ! D27   D(13,4,14,5)         -177.2115         calculate D2E/DX2 analytically  !
 ! D28   D(13,4,14,43)          -2.6746         calculate D2E/DX2 analytically  !
 ! D29   D(1,5,14,4)            -0.6191         calculate D2E/DX2 analytically  !
 ! D30   D(1,5,14,43)         -175.4956         calculate D2E/DX2 analytically  !
 ! D31   D(15,5,14,4)          176.489          calculate D2E/DX2 analytically  !
 ! D32   D(15,5,14,43)           1.6125         calculate D2E/DX2 analytically  !
 ! D33   D(1,5,15,17)         -169.5654         calculate D2E/DX2 analytically  !
 ! D34   D(1,5,15,41)           16.1652         calculate D2E/DX2 analytically  !
 ! D35   D(14,5,15,17)          13.4952         calculate D2E/DX2 analytically  !
 ! D36   D(14,5,15,41)        -160.7741         calculate D2E/DX2 analytically  !
 ! D37   D(3,9,11,10)           -2.3036         calculate D2E/DX2 analytically  !
 ! D38   D(3,9,11,12)          175.2554         calculate D2E/DX2 analytically  !
 ! D39   D(6,9,11,10)         -178.7759         calculate D2E/DX2 analytically  !
 ! D40   D(6,9,11,12)           -1.2168         calculate D2E/DX2 analytically  !
 ! D41   D(13,10,11,9)          -4.273          calculate D2E/DX2 analytically  !
 ! D42   D(13,10,11,12)        178.1106         calculate D2E/DX2 analytically  !
 ! D43   D(16,10,11,9)         167.4229         calculate D2E/DX2 analytically  !
 ! D44   D(16,10,11,12)        -10.1935         calculate D2E/DX2 analytically  !
 ! D45   D(11,10,13,4)           8.7752         calculate D2E/DX2 analytically  !
 ! D46   D(11,10,13,19)       -175.6527         calculate D2E/DX2 analytically  !
 ! D47   D(16,10,13,4)        -164.3406         calculate D2E/DX2 analytically  !
 ! D48   D(16,10,13,19)         11.2315         calculate D2E/DX2 analytically  !
 ! D49   D(11,10,16,18)       -169.0256         calculate D2E/DX2 analytically  !
 ! D50   D(11,10,16,42)          7.9728         calculate D2E/DX2 analytically  !
 ! D51   D(13,10,16,18)          3.4915         calculate D2E/DX2 analytically  !
 ! D52   D(13,10,16,42)       -179.51           calculate D2E/DX2 analytically  !
 ! D53   D(4,13,19,18)         159.5717         calculate D2E/DX2 analytically  !
 ! D54   D(4,13,19,20)         -41.736          calculate D2E/DX2 analytically  !
 ! D55   D(4,13,19,43)           7.0074         calculate D2E/DX2 analytically  !
 ! D56   D(10,13,19,18)        -15.7166         calculate D2E/DX2 analytically  !
 ! D57   D(10,13,19,20)        142.9757         calculate D2E/DX2 analytically  !
 ! D58   D(10,13,19,43)       -168.2809         calculate D2E/DX2 analytically  !
 ! D59   D(4,13,22,23)         157.7201         calculate D2E/DX2 analytically  !
 ! D60   D(4,13,22,24)         -80.8293         calculate D2E/DX2 analytically  !
 ! D61   D(4,13,22,26)          38.6456         calculate D2E/DX2 analytically  !
 ! D62   D(10,13,22,23)        -16.8699         calculate D2E/DX2 analytically  !
 ! D63   D(10,13,22,24)        104.5806         calculate D2E/DX2 analytically  !
 ! D64   D(10,13,22,26)       -135.9444         calculate D2E/DX2 analytically  !
 ! D65   D(4,14,43,17)         176.2464         calculate D2E/DX2 analytically  !
 ! D66   D(4,14,43,19)           5.9444         calculate D2E/DX2 analytically  !
 ! D67   D(4,14,43,20)          56.5211         calculate D2E/DX2 analytically  !
 ! D68   D(4,14,43,44)         -99.4598         calculate D2E/DX2 analytically  !
 ! D69   D(5,14,43,17)          -9.0465         calculate D2E/DX2 analytically  !
 ! D70   D(5,14,43,19)        -179.3485         calculate D2E/DX2 analytically  !
 ! D71   D(5,14,43,20)        -128.7718         calculate D2E/DX2 analytically  !
 ! D72   D(5,14,43,44)          75.2473         calculate D2E/DX2 analytically  !
 ! D73   D(5,15,17,37)        -171.8384         calculate D2E/DX2 analytically  !
 ! D74   D(5,15,17,43)         -19.9184         calculate D2E/DX2 analytically  !
 ! D75   D(41,15,17,37)          2.5479         calculate D2E/DX2 analytically  !
 ! D76   D(41,15,17,43)        154.4679         calculate D2E/DX2 analytically  !
 ! D77   D(5,15,41,34)         163.1424         calculate D2E/DX2 analytically  !
 ! D78   D(17,15,41,34)        -11.2609         calculate D2E/DX2 analytically  !
 ! D79   D(10,16,18,19)        -15.723          calculate D2E/DX2 analytically  !
 ! D80   D(10,16,18,39)        168.6894         calculate D2E/DX2 analytically  !
 ! D81   D(42,16,18,19)        167.0634         calculate D2E/DX2 analytically  !
 ! D82   D(42,16,18,39)         -8.5243         calculate D2E/DX2 analytically  !
 ! D83   D(10,16,42,31)        174.6125         calculate D2E/DX2 analytically  !
 ! D84   D(18,16,42,31)         -8.3374         calculate D2E/DX2 analytically  !
 ! D85   D(15,17,37,34)          6.8276         calculate D2E/DX2 analytically  !
 ! D86   D(15,17,37,38)        122.215          calculate D2E/DX2 analytically  !
 ! D87   D(15,17,37,45)       -118.1793         calculate D2E/DX2 analytically  !
 ! D88   D(43,17,37,34)       -133.5738         calculate D2E/DX2 analytically  !
 ! D89   D(43,17,37,38)        -18.1863         calculate D2E/DX2 analytically  !
 ! D90   D(43,17,37,45)        101.4194         calculate D2E/DX2 analytically  !
 ! D91   D(15,17,43,14)         15.1157         calculate D2E/DX2 analytically  !
 ! D92   D(15,17,43,19)         52.3452         calculate D2E/DX2 analytically  !
 ! D93   D(15,17,43,20)         94.9232         calculate D2E/DX2 analytically  !
 ! D94   D(15,17,43,28)       -163.7604         calculate D2E/DX2 analytically  !
 ! D95   D(15,17,43,44)        -76.2412         calculate D2E/DX2 analytically  !
 ! D96   D(37,17,43,14)        155.3471         calculate D2E/DX2 analytically  !
 ! D97   D(37,17,43,19)       -167.4235         calculate D2E/DX2 analytically  !
 ! D98   D(37,17,43,20)       -124.8455         calculate D2E/DX2 analytically  !
 ! D99   D(37,17,43,28)        -23.5291         calculate D2E/DX2 analytically  !
 ! D100  D(37,17,43,44)         63.9901         calculate D2E/DX2 analytically  !
 ! D101  D(16,18,19,13)         16.6277         calculate D2E/DX2 analytically  !
 ! D102  D(16,18,19,20)        -54.5611         calculate D2E/DX2 analytically  !
 ! D103  D(16,18,19,22)       -165.2501         calculate D2E/DX2 analytically  !
 ! D104  D(16,18,19,43)         86.9791         calculate D2E/DX2 analytically  !
 ! D105  D(39,18,19,13)       -170.3504         calculate D2E/DX2 analytically  !
 ! D106  D(39,18,19,20)        118.4608         calculate D2E/DX2 analytically  !
 ! D107  D(39,18,19,22)          7.7718         calculate D2E/DX2 analytically  !
 ! D108  D(39,18,19,43)        -99.999          calculate D2E/DX2 analytically  !
 ! D109  D(16,18,39,31)         20.2578         calculate D2E/DX2 analytically  !
 ! D110  D(16,18,39,40)        136.8722         calculate D2E/DX2 analytically  !
 ! D111  D(16,18,39,58)       -102.4543         calculate D2E/DX2 analytically  !
 ! D112  D(19,18,39,31)       -152.9412         calculate D2E/DX2 analytically  !
 ! D113  D(19,18,39,40)        -36.3268         calculate D2E/DX2 analytically  !
 ! D114  D(19,18,39,58)         84.3467         calculate D2E/DX2 analytically  !
 ! D115  D(13,19,20,21)        -66.4433         calculate D2E/DX2 analytically  !
 ! D116  D(18,19,20,21)          3.0792         calculate D2E/DX2 analytically  !
 ! D117  D(22,19,20,21)        115.9532         calculate D2E/DX2 analytically  !
 ! D118  D(18,19,22,23)         -0.9022         calculate D2E/DX2 analytically  !
 ! D119  D(18,19,22,24)        120.3137         calculate D2E/DX2 analytically  !
 ! D120  D(18,19,22,26)       -120.2736         calculate D2E/DX2 analytically  !
 ! D121  D(20,19,22,23)       -159.8479         calculate D2E/DX2 analytically  !
 ! D122  D(20,19,22,24)        -38.6321         calculate D2E/DX2 analytically  !
 ! D123  D(20,19,22,26)         80.7807         calculate D2E/DX2 analytically  !
 ! D124  D(43,19,22,23)        151.35           calculate D2E/DX2 analytically  !
 ! D125  D(43,19,22,24)        -87.4342         calculate D2E/DX2 analytically  !
 ! D126  D(43,19,22,26)         31.9786         calculate D2E/DX2 analytically  !
 ! D127  D(13,19,43,14)         -5.4763         calculate D2E/DX2 analytically  !
 ! D128  D(13,19,43,17)        -42.1285         calculate D2E/DX2 analytically  !
 ! D129  D(13,19,43,28)        173.2109         calculate D2E/DX2 analytically  !
 ! D130  D(13,19,43,44)         84.0697         calculate D2E/DX2 analytically  !
 ! D131  D(18,19,43,14)        -74.3275         calculate D2E/DX2 analytically  !
 ! D132  D(18,19,43,17)       -110.9797         calculate D2E/DX2 analytically  !
 ! D133  D(18,19,43,28)        104.3597         calculate D2E/DX2 analytically  !
 ! D134  D(18,19,43,44)         15.2185         calculate D2E/DX2 analytically  !
 ! D135  D(22,19,43,14)        175.3112         calculate D2E/DX2 analytically  !
 ! D136  D(22,19,43,17)        138.659          calculate D2E/DX2 analytically  !
 ! D137  D(22,19,43,28)         -6.0017         calculate D2E/DX2 analytically  !
 ! D138  D(22,19,43,44)        -95.1428         calculate D2E/DX2 analytically  !
 ! D139  D(19,20,21,30)        -42.0172         calculate D2E/DX2 analytically  !
 ! D140  D(19,20,21,71)        138.4287         calculate D2E/DX2 analytically  !
 ! D141  D(43,20,21,30)       -173.9318         calculate D2E/DX2 analytically  !
 ! D142  D(43,20,21,71)          6.5141         calculate D2E/DX2 analytically  !
 ! D143  D(21,20,43,14)         53.5709         calculate D2E/DX2 analytically  !
 ! D144  D(21,20,43,17)        -22.8998         calculate D2E/DX2 analytically  !
 ! D145  D(21,20,43,28)       -128.1427         calculate D2E/DX2 analytically  !
 ! D146  D(21,20,43,44)        135.2817         calculate D2E/DX2 analytically  !
 ! D147  D(20,21,71,72)       -172.2896         calculate D2E/DX2 analytically  !
 ! D148  D(20,21,71,73)          7.8501         calculate D2E/DX2 analytically  !
 ! D149  D(30,21,71,72)          8.1492         calculate D2E/DX2 analytically  !
 ! D150  D(30,21,71,73)       -171.7111         calculate D2E/DX2 analytically  !
 ! D151  D(19,22,24,25)        113.635          calculate D2E/DX2 analytically  !
 ! D152  D(19,22,24,87)        -95.8202         calculate D2E/DX2 analytically  !
 ! D153  D(23,22,24,25)       -138.8759         calculate D2E/DX2 analytically  !
 ! D154  D(23,22,24,87)         11.6688         calculate D2E/DX2 analytically  !
 ! D155  D(26,22,24,25)         28.5431         calculate D2E/DX2 analytically  !
 ! D156  D(26,22,24,87)        179.0878         calculate D2E/DX2 analytically  !
 ! D157  D(19,22,26,27)         89.3883         calculate D2E/DX2 analytically  !
 ! D158  D(19,22,26,28)        -96.3303         calculate D2E/DX2 analytically  !
 ! D159  D(23,22,26,27)        -17.1846         calculate D2E/DX2 analytically  !
 ! D160  D(23,22,26,28)        157.0969         calculate D2E/DX2 analytically  !
 ! D161  D(24,22,26,27)        175.2199         calculate D2E/DX2 analytically  !
 ! D162  D(24,22,26,28)        -10.4987         calculate D2E/DX2 analytically  !
 ! D163  D(22,24,87,88)         28.3237         calculate D2E/DX2 analytically  !
 ! D164  D(22,24,87,89)       -152.56           calculate D2E/DX2 analytically  !
 ! D165  D(25,24,87,88)        179.6711         calculate D2E/DX2 analytically  !
 ! D166  D(25,24,87,89)         -1.2127         calculate D2E/DX2 analytically  !
 ! D167  D(22,26,28,29)        -20.2357         calculate D2E/DX2 analytically  !
 ! D168  D(22,26,28,43)         90.1637         calculate D2E/DX2 analytically  !
 ! D169  D(22,26,28,86)       -163.4624         calculate D2E/DX2 analytically  !
 ! D170  D(27,26,28,29)        154.0981         calculate D2E/DX2 analytically  !
 ! D171  D(27,26,28,43)        -95.5024         calculate D2E/DX2 analytically  !
 ! D172  D(27,26,28,86)         10.8714         calculate D2E/DX2 analytically  !
 ! D173  D(26,28,43,17)        166.274          calculate D2E/DX2 analytically  !
 ! D174  D(26,28,43,19)        -23.1612         calculate D2E/DX2 analytically  !
 ! D175  D(26,28,43,20)        -73.6674         calculate D2E/DX2 analytically  !
 ! D176  D(26,28,43,44)         82.207          calculate D2E/DX2 analytically  !
 ! D177  D(29,28,43,17)        -74.337          calculate D2E/DX2 analytically  !
 ! D178  D(29,28,43,19)         96.2278         calculate D2E/DX2 analytically  !
 ! D179  D(29,28,43,20)         45.7215         calculate D2E/DX2 analytically  !
 ! D180  D(29,28,43,44)       -158.404          calculate D2E/DX2 analytically  !
 ! D181  D(86,28,43,17)         50.271          calculate D2E/DX2 analytically  !
 ! D182  D(86,28,43,19)       -139.1642         calculate D2E/DX2 analytically  !
 ! D183  D(86,28,43,20)        170.3295         calculate D2E/DX2 analytically  !
 ! D184  D(86,28,43,44)        -33.796          calculate D2E/DX2 analytically  !
 ! D185  D(32,31,39,18)         91.6337         calculate D2E/DX2 analytically  !
 ! D186  D(32,31,39,40)        -24.6161         calculate D2E/DX2 analytically  !
 ! D187  D(32,31,39,58)       -145.7999         calculate D2E/DX2 analytically  !
 ! D188  D(33,31,39,18)       -142.0427         calculate D2E/DX2 analytically  !
 ! D189  D(33,31,39,40)        101.7075         calculate D2E/DX2 analytically  !
 ! D190  D(33,31,39,58)        -19.4763         calculate D2E/DX2 analytically  !
 ! D191  D(42,31,39,18)        -24.7901         calculate D2E/DX2 analytically  !
 ! D192  D(42,31,39,40)       -141.0399         calculate D2E/DX2 analytically  !
 ! D193  D(42,31,39,58)         97.7762         calculate D2E/DX2 analytically  !
 ! D194  D(32,31,42,16)        -99.0983         calculate D2E/DX2 analytically  !
 ! D195  D(33,31,42,16)        142.9564         calculate D2E/DX2 analytically  !
 ! D196  D(39,31,42,16)         20.6513         calculate D2E/DX2 analytically  !
 ! D197  D(35,34,37,17)        102.8769         calculate D2E/DX2 analytically  !
 ! D198  D(35,34,37,38)        -10.5886         calculate D2E/DX2 analytically  !
 ! D199  D(35,34,37,45)       -132.2582         calculate D2E/DX2 analytically  !
 ! D200  D(36,34,37,17)       -130.3903         calculate D2E/DX2 analytically  !
 ! D201  D(36,34,37,38)        116.1442         calculate D2E/DX2 analytically  !
 ! D202  D(36,34,37,45)         -5.5253         calculate D2E/DX2 analytically  !
 ! D203  D(41,34,37,17)        -12.8455         calculate D2E/DX2 analytically  !
 ! D204  D(41,34,37,38)       -126.311          calculate D2E/DX2 analytically  !
 ! D205  D(41,34,37,45)        112.0195         calculate D2E/DX2 analytically  !
 ! D206  D(35,34,41,15)       -105.3394         calculate D2E/DX2 analytically  !
 ! D207  D(36,34,41,15)        136.7112         calculate D2E/DX2 analytically  !
 ! D208  D(37,34,41,15)         14.2324         calculate D2E/DX2 analytically  !
 ! D209  D(17,37,45,46)         64.1124         calculate D2E/DX2 analytically  !
 ! D210  D(17,37,45,50)       -175.24           calculate D2E/DX2 analytically  !
 ! D211  D(17,37,45,54)        -56.8755         calculate D2E/DX2 analytically  !
 ! D212  D(34,37,45,46)        -54.2421         calculate D2E/DX2 analytically  !
 ! D213  D(34,37,45,50)         66.4056         calculate D2E/DX2 analytically  !
 ! D214  D(34,37,45,54)       -175.23           calculate D2E/DX2 analytically  !
 ! D215  D(38,37,45,46)       -176.8202         calculate D2E/DX2 analytically  !
 ! D216  D(38,37,45,50)        -56.1726         calculate D2E/DX2 analytically  !
 ! D217  D(38,37,45,54)         62.1919         calculate D2E/DX2 analytically  !
 ! D218  D(18,39,58,59)         62.1288         calculate D2E/DX2 analytically  !
 ! D219  D(18,39,58,63)        -58.2637         calculate D2E/DX2 analytically  !
 ! D220  D(18,39,58,67)       -176.754          calculate D2E/DX2 analytically  !
 ! D221  D(31,39,58,59)        -53.2821         calculate D2E/DX2 analytically  !
 ! D222  D(31,39,58,63)       -173.6746         calculate D2E/DX2 analytically  !
 ! D223  D(31,39,58,67)         67.8351         calculate D2E/DX2 analytically  !
 ! D224  D(40,39,58,59)       -175.9619         calculate D2E/DX2 analytically  !
 ! D225  D(40,39,58,63)         63.6456         calculate D2E/DX2 analytically  !
 ! D226  D(40,39,58,67)        -54.8447         calculate D2E/DX2 analytically  !
 ! D227  D(37,45,46,47)        -61.1749         calculate D2E/DX2 analytically  !
 ! D228  D(37,45,46,48)         60.4717         calculate D2E/DX2 analytically  !
 ! D229  D(37,45,46,49)        179.9568         calculate D2E/DX2 analytically  !
 ! D230  D(50,45,46,47)        179.208          calculate D2E/DX2 analytically  !
 ! D231  D(50,45,46,48)        -59.1454         calculate D2E/DX2 analytically  !
 ! D232  D(50,45,46,49)         60.3396         calculate D2E/DX2 analytically  !
 ! D233  D(54,45,46,47)         59.9996         calculate D2E/DX2 analytically  !
 ! D234  D(54,45,46,48)       -178.3538         calculate D2E/DX2 analytically  !
 ! D235  D(54,45,46,49)        -58.8688         calculate D2E/DX2 analytically  !
 ! D236  D(37,45,50,51)         58.0452         calculate D2E/DX2 analytically  !
 ! D237  D(37,45,50,52)        177.4878         calculate D2E/DX2 analytically  !
 ! D238  D(37,45,50,53)        -63.0564         calculate D2E/DX2 analytically  !
 ! D239  D(46,45,50,51)        179.9088         calculate D2E/DX2 analytically  !
 ! D240  D(46,45,50,52)        -60.6486         calculate D2E/DX2 analytically  !
 ! D241  D(46,45,50,53)         58.8072         calculate D2E/DX2 analytically  !
 ! D242  D(54,45,50,51)        -60.7071         calculate D2E/DX2 analytically  !
 ! D243  D(54,45,50,52)         58.7355         calculate D2E/DX2 analytically  !
 ! D244  D(54,45,50,53)        178.1913         calculate D2E/DX2 analytically  !
 ! D245  D(37,45,54,55)         61.2322         calculate D2E/DX2 analytically  !
 ! D246  D(37,45,54,56)       -178.7945         calculate D2E/DX2 analytically  !
 ! D247  D(37,45,54,57)        -59.239          calculate D2E/DX2 analytically  !
 ! D248  D(46,45,54,55)        -61.2586         calculate D2E/DX2 analytically  !
 ! D249  D(46,45,54,56)         58.7147         calculate D2E/DX2 analytically  !
 ! D250  D(46,45,54,57)        178.2702         calculate D2E/DX2 analytically  !
 ! D251  D(50,45,54,55)        179.0193         calculate D2E/DX2 analytically  !
 ! D252  D(50,45,54,56)        -61.0074         calculate D2E/DX2 analytically  !
 ! D253  D(50,45,54,57)         58.5482         calculate D2E/DX2 analytically  !
 ! D254  D(39,58,59,60)        -60.9314         calculate D2E/DX2 analytically  !
 ! D255  D(39,58,59,61)         60.8935         calculate D2E/DX2 analytically  !
 ! D256  D(39,58,59,62)       -179.4533         calculate D2E/DX2 analytically  !
 ! D257  D(63,58,59,60)         60.0678         calculate D2E/DX2 analytically  !
 ! D258  D(63,58,59,61)       -178.1074         calculate D2E/DX2 analytically  !
 ! D259  D(63,58,59,62)        -58.4541         calculate D2E/DX2 analytically  !
 ! D260  D(67,58,59,60)        179.2033         calculate D2E/DX2 analytically  !
 ! D261  D(67,58,59,61)        -58.9719         calculate D2E/DX2 analytically  !
 ! D262  D(67,58,59,62)         60.6813         calculate D2E/DX2 analytically  !
 ! D263  D(39,58,63,64)        -57.6463         calculate D2E/DX2 analytically  !
 ! D264  D(39,58,63,65)         64.0259         calculate D2E/DX2 analytically  !
 ! D265  D(39,58,63,66)       -176.94           calculate D2E/DX2 analytically  !
 ! D266  D(59,58,63,64)       -179.7428         calculate D2E/DX2 analytically  !
 ! D267  D(59,58,63,65)        -58.0706         calculate D2E/DX2 analytically  !
 ! D268  D(59,58,63,66)         60.9635         calculate D2E/DX2 analytically  !
 ! D269  D(67,58,63,64)         60.3185         calculate D2E/DX2 analytically  !
 ! D270  D(67,58,63,65)       -178.0092         calculate D2E/DX2 analytically  !
 ! D271  D(67,58,63,66)        -58.9752         calculate D2E/DX2 analytically  !
 ! D272  D(39,58,67,68)         58.1447         calculate D2E/DX2 analytically  !
 ! D273  D(39,58,67,69)        177.334          calculate D2E/DX2 analytically  !
 ! D274  D(39,58,67,70)        -63.3137         calculate D2E/DX2 analytically  !
 ! D275  D(59,58,67,68)       -179.9013         calculate D2E/DX2 analytically  !
 ! D276  D(59,58,67,69)        -60.7119         calculate D2E/DX2 analytically  !
 ! D277  D(59,58,67,70)         58.6404         calculate D2E/DX2 analytically  !
 ! D278  D(63,58,67,68)        -60.883          calculate D2E/DX2 analytically  !
 ! D279  D(63,58,67,69)         58.3063         calculate D2E/DX2 analytically  !
 ! D280  D(63,58,67,70)        177.6586         calculate D2E/DX2 analytically  !
 ! D281  D(21,71,72,74)        178.8843         calculate D2E/DX2 analytically  !
 ! D282  D(21,71,72,75)         -0.6013         calculate D2E/DX2 analytically  !
 ! D283  D(73,71,72,74)         -1.245          calculate D2E/DX2 analytically  !
 ! D284  D(73,71,72,75)        179.2693         calculate D2E/DX2 analytically  !
 ! D285  D(21,71,73,76)       -179.0592         calculate D2E/DX2 analytically  !
 ! D286  D(21,71,73,77)          1.9068         calculate D2E/DX2 analytically  !
 ! D287  D(72,71,73,76)          1.0788         calculate D2E/DX2 analytically  !
 ! D288  D(72,71,73,77)       -177.9551         calculate D2E/DX2 analytically  !
 ! D289  D(71,72,74,78)          0.5355         calculate D2E/DX2 analytically  !
 ! D290  D(71,72,74,79)       -179.6088         calculate D2E/DX2 analytically  !
 ! D291  D(75,72,74,78)       -179.9791         calculate D2E/DX2 analytically  !
 ! D292  D(75,72,74,79)         -0.1234         calculate D2E/DX2 analytically  !
 ! D293  D(71,73,76,78)         -0.2154         calculate D2E/DX2 analytically  !
 ! D294  D(71,73,76,80)       -179.8943         calculate D2E/DX2 analytically  !
 ! D295  D(77,73,76,78)        178.8044         calculate D2E/DX2 analytically  !
 ! D296  D(77,73,76,80)         -0.8745         calculate D2E/DX2 analytically  !
 ! D297  D(72,74,78,76)          0.3769         calculate D2E/DX2 analytically  !
 ! D298  D(72,74,78,85)       -179.9649         calculate D2E/DX2 analytically  !
 ! D299  D(79,74,78,76)       -179.4763         calculate D2E/DX2 analytically  !
 ! D300  D(79,74,78,85)          0.1819         calculate D2E/DX2 analytically  !
 ! D301  D(73,76,78,74)         -0.5351         calculate D2E/DX2 analytically  !
 ! D302  D(73,76,78,85)        179.7758         calculate D2E/DX2 analytically  !
 ! D303  D(80,76,78,74)        179.1535         calculate D2E/DX2 analytically  !
 ! D304  D(80,76,78,85)         -0.5356         calculate D2E/DX2 analytically  !
 ! D305  D(74,78,85,81)          0.0163         calculate D2E/DX2 analytically  !
 ! D306  D(76,78,85,81)        179.6853         calculate D2E/DX2 analytically  !
 ! D307  D(82,81,85,78)        -61.386          calculate D2E/DX2 analytically  !
 ! D308  D(83,81,85,78)         61.2143         calculate D2E/DX2 analytically  !
 ! D309  D(84,81,85,78)        179.9487         calculate D2E/DX2 analytically  !
 ! D310  D(24,87,88,90)       -178.3135         calculate D2E/DX2 analytically  !
 ! D311  D(24,87,88,91)          3.8103         calculate D2E/DX2 analytically  !
 ! D312  D(89,87,88,90)          2.5593         calculate D2E/DX2 analytically  !
 ! D313  D(89,87,88,91)       -175.3169         calculate D2E/DX2 analytically  !
 ! D314  D(24,87,89,92)        178.7728         calculate D2E/DX2 analytically  !
 ! D315  D(24,87,89,93)         -0.3795         calculate D2E/DX2 analytically  !
 ! D316  D(88,87,89,92)         -2.0607         calculate D2E/DX2 analytically  !
 ! D317  D(88,87,89,93)        178.787          calculate D2E/DX2 analytically  !
 ! D318  D(87,88,90,94)         -1.4325         calculate D2E/DX2 analytically  !
 ! D319  D(87,88,90,95)        179.5779         calculate D2E/DX2 analytically  !
 ! D320  D(91,88,90,94)        176.4177         calculate D2E/DX2 analytically  !
 ! D321  D(91,88,90,95)         -2.5718         calculate D2E/DX2 analytically  !
 ! D322  D(87,89,92,94)          0.4243         calculate D2E/DX2 analytically  !
 ! D323  D(87,89,92,96)       -179.4858         calculate D2E/DX2 analytically  !
 ! D324  D(93,89,92,94)        179.569          calculate D2E/DX2 analytically  !
 ! D325  D(93,89,92,96)         -0.3411         calculate D2E/DX2 analytically  !
 ! D326  D(88,90,94,92)         -0.2791         calculate D2E/DX2 analytically  !
 ! D327  D(88,90,94,97)       -179.5899         calculate D2E/DX2 analytically  !
 ! D328  D(95,90,94,92)        178.7087         calculate D2E/DX2 analytically  !
 ! D329  D(95,90,94,97)         -0.6021         calculate D2E/DX2 analytically  !
 ! D330  D(89,92,94,90)          0.7782         calculate D2E/DX2 analytically  !
 ! D331  D(89,92,94,97)       -179.9116         calculate D2E/DX2 analytically  !
 ! D332  D(96,92,94,90)       -179.312          calculate D2E/DX2 analytically  !
 ! D333  D(96,92,94,97)         -0.0018         calculate D2E/DX2 analytically  !
 --------------------------------------------------------------------------------
 Trust Radius=3.00D-01 FncErr=5.00D-06 GrdErr=5.00D-06 EigMax=2.50D+02 EigMin=1.00D-04
 Number of steps in this run=    582 maximum allowed number of steps=    582.
 Search for a saddle point of order  1.
 GradGradGradGradGradGradGradGradGradGradGradGradGradGradGradGradGradGrad

 Stoichiometry    C41H46ClN4Ni2O3(2)
 Framework group  C1[X(C41H46ClN4Ni2O3)]
 Deg. of freedom   285
 Full point group                 C1      NOp   1
 Largest Abelian subgroup         C1      NOp   1
 Largest concise Abelian subgroup C1      NOp   1
                         Standard orientation:                         
 ---------------------------------------------------------------------
 Center     Atomic      Atomic             Coordinates (Angstroms)
 Number     Number       Type             X           Y           Z
 ---------------------------------------------------------------------
      1          6           0        2.373038   -1.295920    3.216029
      2          6           0        1.452025   -0.706940    4.086029
      3          6           0        0.204015   -0.242967    3.604029
      4          6           0       -0.045982   -0.373972    2.192029
      5          6           0        2.049040   -1.393927    1.859029
      6          1           0       -0.677000    0.424014    5.485029
      7          1           0        3.331046   -1.679899    3.569029
      8          1           0        1.677023   -0.617935    5.152029
      9          6           0       -0.841997    0.301011    4.412029
     10          6           0       -2.261999    0.404980    2.466029
     11          6           0       -2.075003    0.598984    3.846029
     12          1           0       -2.914011    0.942966    4.454029
     13          7           0       -1.223991    0.007002    1.639029
     14          7           0        0.861030   -0.932953    1.363029
     15          6           0        2.842054   -2.028910    0.820029
     16          6           0       -3.479999    0.406953    1.728029
     17          7           0        2.534050   -1.881916   -0.439971
     18          7           0       -3.465990   -0.014046    0.464029
     19         28           0       -1.634989   -0.080007   -0.224971
     20          6           0        0.130997    0.571032   -0.664971
     21          6           0        0.637971    1.801043   -0.398971
     22          6           0       -1.999985   -0.236015   -2.169971
     23          1           0       -3.087985   -0.255038   -2.272971
     24          6           0       -1.272012    0.988001   -2.352971
     25          1           0       -0.334010    0.908022   -2.906971
     26          6           0       -1.278958   -1.481999   -2.120971
     27          1           0       -1.840938   -2.392011   -1.901971
     28          6           0        0.097045   -1.634969   -2.450971
     29          1           0        0.574028   -0.868959   -3.070971
     30          1           0       -0.067047    2.630027   -0.578971
     31          6           0       -5.597006    0.733907    1.099029
     32          1           0       -5.720029    1.771905    0.749029
     33          1           0       -6.558998    0.348886    1.458029
     34          6           0        4.122088   -3.612882   -0.097971
     35          1           0        3.700110   -4.620891    0.029029
     36          1           0        5.213089   -3.672858   -0.204971
     37          6           0        3.402070   -2.803897   -1.214971
     38          1           0        2.734085   -3.472912   -1.785971
     39          6           0       -4.887987   -0.162077    0.055029
     40          1           0       -5.029996    0.246920   -0.960971
     41          8           0        3.844072   -2.876888    1.143029
     42          8           0       -4.682007    0.757927    2.245029
     43         28           0        0.507037   -1.272960   -0.546971
     44         17           0        0.032087   -3.578971   -0.064971
     45          6           0        4.358055   -2.095877   -2.229971
     46          6           0        5.385036   -1.195854   -1.511971
     47          1           0        4.884018   -0.397865   -0.943971
     48          1           0        6.030048   -1.760840   -0.819971
     49          1           0        6.044025   -0.711840   -2.250971
     50          6           0        5.096079   -3.190861   -3.031971
     51          1           0        4.384093   -3.850876   -3.554971
     52          1           0        5.749069   -2.730846   -3.791971
     53          1           0        5.735093   -3.820847   -2.390971
     54          6           0        3.528036   -1.237895   -3.204971
     55          1           0        2.972019   -0.454907   -2.667971
     56          1           0        4.189026   -0.749880   -3.939971
     57          1           0        2.803050   -1.855910   -3.758971
     58          6           0       -5.391955   -1.650088    0.043029
     59          6           0       -5.326941   -2.280087    1.450029
     60          1           0       -4.292941   -2.296064    1.830029
     61          1           0       -5.957952   -1.750101    2.181029
     62          1           0       -5.676918   -3.324094    1.406029
     63          6           0       -4.518936   -2.486069   -0.911971
     64          1           0       -4.526945   -2.074069   -1.934971
     65          1           0       -3.479935   -2.533047   -0.553971
     66          1           0       -4.899914   -3.519078   -0.967971
     67          6           0       -6.846954   -1.657120   -0.475971
     68          1           0       -6.916964   -1.212121   -1.482971
     69          1           0       -7.217932   -2.693128   -0.542971
     70          1           0       -7.536966   -1.108135    0.187029
     71          6           0        1.934960    2.276071    0.073029
     72          6           0        2.070930    3.645074    0.402029
     73          6           0        3.080978    1.459096    0.225029
     74          6           0        3.270919    4.178100    0.883029
     75          1           0        1.206916    4.306055    0.284029
     76          6           0        4.280967    1.976122    0.699029
     77          1           0        3.012001    0.407094   -0.053971
     78          6           0        4.388937    3.340124    1.039029
     79          1           0        3.323896    5.240101    1.129029
     80          1           0        5.164980    1.344141    0.814029
     81          6           0        5.768898    5.122154    1.850029
     82          1           0        5.599884    5.783150    0.980029
     83          1           0        5.084892    5.412139    2.667029
     84          1           0        6.806896    5.229177    2.190029
     85          8           0        5.616928    3.744151    1.501029
     86          1           0        0.428067   -2.659962   -2.636971
     87          6           0       -1.870041    2.321988   -2.440971
     88          6           0       -3.090048    2.670962   -1.812971
     89          6           0       -1.196063    3.329003   -3.172971
     90          6           0       -3.634076    3.948950   -1.957971
     91          1           0       -3.587032    1.932951   -1.179971
     92          6           0       -1.736090    4.610991   -3.308971
     93          1           0       -0.241057    3.087024   -3.649971
     94          6           0       -2.963097    4.926964   -2.708971
     95          1           0       -4.581081    4.192929   -1.468971
     96          1           0       -1.198107    5.367003   -3.886971
     97          1           0       -3.388119    5.927955   -2.814971
 ---------------------------------------------------------------------
 Rotational constants (GHZ):           0.0714518           0.0455699           0.0404162
 General basis read from cards:  (5D, 7F)
 ======================================================================================================
                                       Pseudopotential Parameters
 ======================================================================================================
  Center     Atomic      Valence      Angular      Power
  Number     Number     Electrons     Momentum     of R      Exponent        Coefficient   SO-Coeffient
 ======================================================================================================
    1          6
                                   No pseudopotential on this center.
    2          6
                                   No pseudopotential on this center.
    3          6
                                   No pseudopotential on this center.
    4          6
                                   No pseudopotential on this center.
    5          6
                                   No pseudopotential on this center.
    6          1
                                   No pseudopotential on this center.
    7          1
                                   No pseudopotential on this center.
    8          1
                                   No pseudopotential on this center.
    9          6
                                   No pseudopotential on this center.
   10          6
                                   No pseudopotential on this center.
   11          6
                                   No pseudopotential on this center.
   12          1
                                   No pseudopotential on this center.
   13          7
                                   No pseudopotential on this center.
   14          7
                                   No pseudopotential on this center.
   15          6
                                   No pseudopotential on this center.
   16          6
                                   No pseudopotential on this center.
   17          7
                                   No pseudopotential on this center.
   18          7
                                   No pseudopotential on this center.
   19         28           18
                                      D and up 
                                                     1      469.9324331      -10.00000000    0.00000000
                                                     2       85.4236411      -69.40848050    0.00000000
                                                     2       21.2674984      -12.09510200    0.00000000
                                      S - D
                                                     0      162.1686097        3.00000000    0.00000000
                                                     1      176.5333232       22.02536180    0.00000000
                                                     2       68.9562010      443.01810880    0.00000000
                                                     2       13.5792838      145.56964110    0.00000000
                                      P - D
                                                     0       69.0181506        5.00000000    0.00000000
                                                     1      275.5955596        4.98828240    0.00000000
                                                     2       47.1315453      256.69458530    0.00000000
                                                     2       12.9874075       78.47544500    0.00000000
   20          6
                                   No pseudopotential on this center.
   21          6
                                   No pseudopotential on this center.
   22          6
                                   No pseudopotential on this center.
   23          1
                                   No pseudopotential on this center.
   24          6
                                   No pseudopotential on this center.
   25          1
                                   No pseudopotential on this center.
   26          6
                                   No pseudopotential on this center.
   27          1
                                   No pseudopotential on this center.
   28          6
                                   No pseudopotential on this center.
   29          1
                                   No pseudopotential on this center.
   30          1
                                   No pseudopotential on this center.
   31          6
                                   No pseudopotential on this center.
   32          1
                                   No pseudopotential on this center.
   33          1
                                   No pseudopotential on this center.
   34          6
                                   No pseudopotential on this center.
   35          1
                                   No pseudopotential on this center.
   36          1
                                   No pseudopotential on this center.
   37          6
                                   No pseudopotential on this center.
   38          1
                                   No pseudopotential on this center.
   39          6
                                   No pseudopotential on this center.
   40          1
                                   No pseudopotential on this center.
   41          8
                                   No pseudopotential on this center.
   42          8
                                   No pseudopotential on this center.
   43         28           18
                                      D and up 
                                                     1      469.9324331      -10.00000000    0.00000000
                                                     2       85.4236411      -69.40848050    0.00000000
                                                     2       21.2674984      -12.09510200    0.00000000
                                      S - D
                                                     0      162.1686097        3.00000000    0.00000000
                                                     1      176.5333232       22.02536180    0.00000000
                                                     2       68.9562010      443.01810880    0.00000000
                                                     2       13.5792838      145.56964110    0.00000000
                                      P - D
                                                     0       69.0181506        5.00000000    0.00000000
                                                     1      275.5955596        4.98828240    0.00000000
                                                     2       47.1315453      256.69458530    0.00000000
                                                     2       12.9874075       78.47544500    0.00000000
   44         17
                                   No pseudopotential on this center.
   45          6
                                   No pseudopotential on this center.
   46          6
                                   No pseudopotential on this center.
   47          1
                                   No pseudopotential on this center.
   48          1
                                   No pseudopotential on this center.
   49          1
                                   No pseudopotential on this center.
   50          6
                                   No pseudopotential on this center.
   51          1
                                   No pseudopotential on this center.
   52          1
                                   No pseudopotential on this center.
   53          1
                                   No pseudopotential on this center.
   54          6
                                   No pseudopotential on this center.
   55          1
                                   No pseudopotential on this center.
   56          1
                                   No pseudopotential on this center.
   57          1
                                   No pseudopotential on this center.
   58          6
                                   No pseudopotential on this center.
   59          6
                                   No pseudopotential on this center.
   60          1
                                   No pseudopotential on this center.
   61          1
                                   No pseudopotential on this center.
   62          1
                                   No pseudopotential on this center.
   63          6
                                   No pseudopotential on this center.
   64          1
                                   No pseudopotential on this center.
   65          1
                                   No pseudopotential on this center.
   66          1
                                   No pseudopotential on this center.
[...]
 000053,-0.00000238,0.00000597,0.00000805,-0.00001377,-0.00000090,-0.00
 000315,0.00000177,-0.00000529,-0.00000252,0.00000057,0.00001369,0.0000
 1208,-0.00002643,-0.00000023,-0.00000251,0.00000311,-0.00001464,0.0000
 1167,-0.00000007,-0.00000930,0.00000258,-0.00000293,-0.00004826,-0.000
 04340,0.00000075,0.00007339,0.00001947,-0.00002041,-0.00000577,0.00000
 482,-0.00002174,0.00000392,-0.00004346,-0.00001476,0.00000169,-0.00000
 772,-0.00000639,0.00000014,0.00000107,0.00000375,0.00000279,-0.0000026
 3,-0.00000435,0.00000122,0.00000083,-0.00000018,-0.00000492,0.00000038
 ,0.00000373,-0.00000173,0.00000517,0.00000294,0.00000060,0.00000010,-0
 .00000115,-0.00000296,-0.00000087,0.00000344,0.00000102,0.00000021,-0.
 00000043,-0.00000207,0.00000264,0.00000068,0.00000611,-0.00000699,-0.0
 0000481,-0.00000733,-0.00000084,0.00000622,0.00000240,0.00000377,-0.00
 000425,-0.00000322,0.00000744,-0.00000260,0.00000221,-0.00000502,0.000
 00217,0.00000021,0.00000308,0.00000161,-0.00000037,0.00000193,-0.00000
 104,0.00000146,-0.00000366,-0.00000074,0.00000280,-0.00000537,-0.00000
 154,-0.00000542,0.00000277,-0.00000391,-0.00000029,0.00000710,0.000005
 24,0.00000453,-0.00000459,-0.00000202,-0.00000173,-0.00000511,-0.00000
 309,-0.00000084,0.00000135,0.00000071,0.00000265,-0.00000254,0.0000008
 8,0.00000078,0.00000169,-0.00000071,0.00002511,-0.00001083,0.00001683,
 -0.00001876,-0.00001977,0.00001000,-0.00000927,0.00001113,0.00000266,-
 0.00002761,0.00000902,0.00000203,0.00001710,0.00000152,-0.00000758,-0.
 00000478,0.00001932,-0.00000223,0.00000883,-0.00000594,-0.00000323,0.0
 0003368,-0.00001024,0.00000869,-0.00000319,0.00000382,-0.00000838,-0.0
 0000279,-0.00000157,-0.00000378,0.00000296,-0.00002983,0.00000097,0.00
 000171,0.00000718,0.00000290,0.00000153,0.00000382,-0.00000050,-0.0000
 0122,0.00000231,-0.00000091,-0.00005262,0.00003249,-0.00002061,-0.0000
 0777,-0.00000409,-0.00000178,-0.00379233,-0.00277903,-0.00099426,-0.00
 073377,-0.00013788,0.00048156,0.01737739,-0.01458048,-0.01136059,-0.00
 191523,0.00121900,-0.00058070,0.00019757,-0.00006076,0.00016150,0.1084
 0943,-0.18864472,-0.08107815,0.00040879,0.00088370,0.00098626,-0.00594
 429,0.00735904,0.00332387,-0.00033216,0.00024419,0.00014349,-0.1152118
 4,0.19699302,-0.00000377,-0.00000135,0.00000817,-0.00000105,0.00000239
 ,-0.00000378,0.00000273,0.00000083,-0.00000479,-0.00000495,-0.00000415
 ,0.00000239,-0.00002165,-0.00000973,-0.00000195,-0.00000061,-0.0000009
 2,-0.00000178,-0.00000073,-0.00000102,-0.00000042,0.00000062,-0.000001
 26,-0.00000177,-0.00001017,0.00000121,-0.00000433,0.00002353,0.0000053
 6,-0.00001240,0.00000944,-0.00000083,0.00001286,0.00000186,-0.00000107
 ,-0.00000044,-0.00001025,0.00000113,0.00001725,0.00001457,0.00000379,0
 .00000476,0.00001617,0.00001304,-0.00000645,-0.00001638,-0.00001607,0.
 00002543,-0.00001489,0.00000261,0.00000802,0.00000093,-0.00002860,-0.0
 0004150,0.00002912,0.00007112,0.00004202,0.00002239,0.00002589,-0.0000
 0361,-0.00001890,-0.00008306,-0.00002086,-0.00006843,-0.00003083,-0.00
 006779,-0.00001467,0.00000661,0.00000707,0.00018255,-0.00016806,0.0001
 1700,-0.00000296,0.00000478,-0.00002294,-0.00003498,-0.00004041,-0.000
 02842,-0.00000149,-0.00000883,0.00001164,0.00002146,-0.00000498,0.0000
 1074,0.00000327,0.00000376,-0.00000252,0.00003023,0.00001700,0.0000179
 9,-0.00000400,-0.00000056,0.00000286,0.00000044,0.00000030,0.00000359,
 0.00000115,-0.00000100,-0.00000013,0.00000221,0.00000171,-0.00000345,-
 0.00000035,-0.00000096,0.00000065,-0.00000199,-0.00000091,0.00000033,0
 .00000241,0.00000235,-0.00000724,-0.00000034,0.00000008,0.00000083,-0.
 00001135,0.00001005,0.00000465,-0.00000431,0.00000362,-0.00000370,-0.0
 0001641,-0.00001449,-0.00000205,0.00002231,0.00001228,-0.00001469,-0.0
 0000921,-0.00000507,-0.00002011,0.00000019,-0.00000838,-0.00000362,0.0
 0000300,-0.00000237,-0.00000025,-0.00000126,-0.00000088,0.00000116,0.0
 0000128,-0.00000088,-0.00000081,-0.00000033,0.00000009,-0.00000081,-0.
 00000086,0.00000014,0.00000121,-0.00000138,0.00000162,0.00000032,0.000
 00003,0.00000095,-0.00000030,-0.00000016,-0.00000040,0.00000106,-0.000
 00018,-0.00000041,-0.00000059,-0.00000207,0.00000007,-0.00000027,0.000
 00203,-0.00000201,0.00000029,-0.00000012,-0.00000027,0.00000133,0.0000
 0005,0.00000267,-0.00000118,-0.00000262,0.00000087,-0.00000149,0.00000
 085,-0.00000220,0.00000092,-0.00000011,0.00000040,0.00000052,0.0000003
 4,0.00000079,-0.00000053,0.00000063,-0.00000125,-0.00000029,0.00000128
 ,-0.00000063,0.00000076,-0.00000094,-0.00000007,-0.00000173,-0.0000003
 2,0.00000116,0.00000095,0.00000095,-0.00000115,-0.00000035,-0.00000048
 ,-0.00000048,0.00000102,-0.00000036,0.00000026,-0.00000116,0.00000029,
 -0.00000114,0.00000009,0.00000009,0.00000090,-0.00000027,0.00004186,0.
 00000904,0.00002154,-0.00004097,-0.00003630,0.00001677,-0.00000981,0.0
 0001052,-0.00000258,-0.00001290,0.00001756,0.00000194,0.00001847,-0.00
 000097,-0.00002719,0.00000693,0.00001111,0.00000008,0.00000638,-0.0000
 0244,0.00000002,0.00000321,-0.00000317,-0.00000112,-0.00000851,0.00000
 265,-0.00000969,0.00000044,0.00000071,-0.00000082,-0.00000095,-0.00001
 844,-0.00000088,-0.00000117,0.00000367,0.00000394,0.00000094,0.0000009
 0,-0.00000221,0.00000113,0.00000169,0.00000058,-0.00001442,0.00001929,
 -0.00000775,-0.00000157,-0.00000015,0.00000135,0.00171875,-0.00110613,
 0.00604237,-0.00044577,0.00040312,-0.00058373,0.00214724,-0.00060017,0
 .00233367,0.00350663,-0.00024266,0.00521268,-0.00036260,0.00018819,-0.
 00086756,0.06858996,-0.08108728,-0.08290873,-0.00157383,0.00091998,-0.
 00311612,0.00386883,-0.00735397,0.00013464,0.00024650,-0.00038102,0.00
 001126,-0.07619676,0.08858357,0.07667812,-0.00000304,-0.00000354,0.000
 00428,0.00000509,0.00000294,0.00000004,-0.00000757,-0.00000309,0.00000
 179,-0.00001010,-0.00000281,-0.00000238,-0.00000299,-0.00000168,-0.000
 00271,0.00000024,-0.00000107,-0.00000130,-0.00000069,0.00000025,-0.000
 00006,-0.00000001,0.,-0.00000118,0.00000850,0.00000498,-0.00000344,0.0
 0003342,0.00000108,0.00001052,-0.00000567,0.00000167,-0.00000731,0.000
 00100,-0.00000051,-0.00000091,-0.00000679,0.00000007,0.00001449,0.0000
 0313,0.00000323,-0.00000128,0.00000825,0.00000844,0.00000965,-0.000030
 02,-0.00000963,-0.00003879,-0.00001201,0.00000074,-0.00000173,0.000005
 20,0.00000057,0.00001851,-0.00000011,0.00006162,0.00005320,-0.00003770
 ,-0.00001268,-0.00006506,0.00002020,-0.00004477,-0.00001163,0.00000500
 ,0.00002032,-0.00000855,0.00000180,-0.00002389,0.00002518,0.00010653,0
 .00007229,-0.00027434,0.00002821,0.00007150,-0.00002599,-0.00001982,-0
 .00004156,-0.00001005,-0.00000142,-0.00000345,0.00000240,0.00001216,0.
 00000641,0.00001000,0.00000198,0.00000260,-0.00000293,0.00001250,0.000
 00561,0.00003607,0.00000338,0.00000996,-0.00000787,0.00000553,-0.00000
 204,-0.00000035,0.00000035,0.00000106,0.00000239,0.00000164,0.00000100
 ,-0.00000235,-0.00000015,-0.00000093,0.00000024,-0.00000130,-0.0000003
 5,0.00000014,0.00000004,0.00000213,-0.00000578,0.00000035,0.00000031,0
 .00000041,-0.00001125,0.00000027,-0.00002223,0.00002317,-0.00001090,0.
 00001065,-0.00001125,-0.00001159,-0.00000421,0.00002238,0.00000482,-0.
 00000157,-0.00000332,-0.00001012,-0.00001041,0.00000094,-0.00001051,-0
 .00000481,0.00000188,-0.00000090,0.00000179,-0.00000007,-0.00000011,-0
 .00000042,0.00000064,-0.00000030,0.00000083,-0.00000082,-0.00000074,-0
 .00000077,0.00000022,0.00000040,0.00000052,-0.00000075,0.00000066,-0.0
 0000104,0.00000025,0.00000010,0.00000007,-0.00000008,0.00000008,0.0000
 0069,-0.00000067,-0.00000079,-0.00000046,0.00000054,0.00000172,-0.0000
 0253,0.00000048,-0.00000065,0.00000180,0.00000029,0.00000043,0.0000001
 2,-0.00000011,0.00000028,-0.00000048,0.00000642,-0.00000185,0.00001294
 ,-0.00000319,0.00000550,-0.00000276,-0.00000008,0.00000012,0.00000007,
 0.00000004,0.00000001,-0.00000009,0.00000028,0.00000115,0.00000218,-0.
 00000211,-0.00000028,-0.00000028,0.00000028,-0.00000074,0.00000013,-0.
 00000016,0.00000059,0.00000036,0.00000070,0.00000073,0.00000004,0.0000
 0169,0.00000099,0.00000049,0.00000073,-0.00000007,-0.00000073,-0.00000
 075,-0.00000002,0.00000011,-0.00000016,0.00000024,0.00000079,0.0000033
 5,0.00000068,0.00001257,-0.00000501,-0.00001541,0.00000190,0.00000113,
 0.00000721,-0.00000121,-0.00000790,-0.00000092,-0.00000299,0.00000283,
 -0.00000462,0.00000364,0.00000027,0.00000760,-0.00000289,0.00000240,0.
 00000053,0.00000105,0.00001447,-0.00000480,0.00000721,-0.00000407,0.00
 000160,-0.00000338,-0.00000083,0.00000018,-0.00000045,0.00000048,-0.00
 001635,0.00000322,0.00000010,0.00000250,0.00000195,0.00000135,0.000001
 49,-0.00000187,-0.00000036,0.00000114,-0.00000031,-0.00002053,0.000017
 26,-0.00001071,0.00000369,-0.00000099,0.00000190,-0.00085225,0.0004887
 2,0.00006806,-0.00066188,0.00186555,0.00326339,-0.00350805,-0.00038039
 ,0.00397568,0.00883020,0.01658501,0.00170495,0.00031535,0.00077978,0.0
 0013708,-0.00481946,-0.02571044,-0.00305962,-0.00035439,-0.00128588,-0
 .00008016,-0.08505055,-0.09095118,-0.00173406,0.00024300,-0.00009174,-
 0.00158947,0.00059068,0.00065904,-0.00160141,0.08512472,-0.00000574,-0
 .00000339,0.00001333,-0.00000253,0.00000158,-0.00000739,0.00000752,0.0
 0000347,-0.00001033,0.00000252,-0.00000307,0.00000317,-0.00003724,-0.0
 0001766,-0.00000372,-0.00000205,-0.00000015,-0.00000267,-0.00000193,-0
 .00000021,-0.00000034,0.00000074,-0.00000101,-0.00000302,-0.00001976,-
 0.00000284,-0.00000509,0.00002237,0.00000654,-0.00002618,0.00001922,-0
 .00000390,0.00002596,0.00000217,0.00000019,-0.00000043,-0.00001650,0.0
 0000747,0.00001774,0.00002057,0.00001341,0.00001107,0.00003699,0.00003
 250,-0.00000901,-0.00003399,-0.00001605,0.00007929,-0.00002504,-0.0000
 0905,0.00001308,0.00000349,-0.00005487,-0.00006190,0.00001263,0.000002
 47,0.00001386,0.00005105,0.00002664,0.00002528,-0.00000989,-0.00002432
 ,-0.00002560,-0.00001231,0.00000346,-0.00002778,-0.00001535,0.00003434
 ,-0.00003381,0.00007604,-0.00003848,0.00020233,-0.00004937,-0.00002480
 ,-0.00001026,-0.00003451,-0.00001089,0.00001665,-0.00000616,-0.0000089
 6,-0.00000550,0.00001338,-0.00001685,0.00001850,0.00000618,0.00000414,
 -0.00000245,0.00000861,-0.00000775,0.00003551,-0.00001734,-0.00001334,
 0.00000428,-0.00000871,0.00000200,0.00001065,0.00000461,-0.00000305,-0
 .00000601,0.00000522,0.00000660,-0.00000916,-0.00000047,-0.00000309,0.
 00000095,-0.00000333,-0.00000101,0.00000129,0.00000701,0.00000922,-0.0
 0001378,0.00000021,-0.00000199,0.00000226,-0.00000450,0.00002453,0.000
 04359,-0.00004094,0.00001614,-0.00002594,-0.00003537,-0.00003019,-0.00
 000094,0.00004917,0.00002441,-0.00003482,0.00000238,0.00001270,-0.0000
 0652,0.00000611,-0.00003543,-0.00001015,0.00000195,-0.00000377,-0.0000
 0140,0.00000041,0.00000079,0.00000123,0.00000132,-0.00000115,0.0000000
 6,-0.00000074,-0.00000102,-0.00000121,-0.00000088,0.00000101,0.0000013
 5,-0.00000122,0.00000306,0.00000021,0.00000090,-0.00000056,-0.00000003
 ,-0.00000121,-0.00000015,0.00000202,-0.00000062,-0.00000091,-0.0000009
 2,-0.00000105,0.00000258,-0.00000197,0.00000203,-0.00000286,0.00000044
 ,-0.00000189,0.00000095,0.00000167,0.00000127,0.00000086,-0.00000222,-
 0.00001403,0.00001062,-0.00002386,0.00000746,-0.00001478,0.00000749,0.
 00000005,0.00000307,0.00000177,-0.00000008,0.00000271,-0.00000132,0.00
 000125,-0.00000602,-0.00000427,0.00000608,-0.00000434,0.00000019,-0.00
 000475,0.00000312,-0.00000450,0.,0.00000577,0.00000330,0.00000308,-0.0
 0000606,-0.00000160,-0.00000432,-0.00000674,-0.00000158,-0.00000224,0.
 00000170,0.00000026,0.00000368,-0.00000362,0.00000062,0.00000078,0.000
 00217,-0.00000206,0.00001798,-0.00000767,0.00000598,-0.00000327,-0.000
 00698,-0.00000160,-0.00000141,0.00000575,0.00000104,-0.00001378,-0.000
 00455,-0.00000396,0.00000202,-0.00000523,0.00000578,-0.00000366,0.0000
 1355,-0.00000457,0.00000400,-0.00000077,-0.00000077,0.00003461,-0.0000
 1058,0.00001451,-0.00000275,0.00000285,-0.00000130,-0.00000266,-0.0000
 0089,-0.00000116,0.00000265,-0.00002532,0.00000740,0.00000148,0.000004
 12,0.00000119,0.00000240,0.00000338,-0.00000202,-0.00000199,0.00000167
 ,-0.00000110,-0.00004561,0.00002826,-0.00002132,-0.00000597,-0.0000026
 7,-0.00000240,0.00056194,0.00051121,0.00007773,0.00284149,-0.00075487,
 -0.00286482,-0.00142845,0.00179159,-0.00059500,-0.01005763,-0.01412509
 ,-0.00018017,-0.00049650,-0.00076723,-0.00000654,0.00101471,-0.0021295
 9,-0.00169838,0.00004616,-0.00021539,-0.00013664,-0.09096271,-0.286535
 32,-0.02538604,0.00026246,0.00072635,0.00097356,0.00031298,0.00042283,
 0.00090751,0.09794910,0.30119475,0.00000074,-0.00000279,0.00000068,-0.
 00000205,0.00000098,0.00000022,0.00000005,0.00000016,-0.00000097,-0.00
 001548,-0.00000494,-0.00000389,-0.00000895,-0.00000575,0.00000020,-0.0
 0000019,-0.00000231,-0.00000167,-0.00000050,0.00000020,0.00000004,-0.0
 0000059,0.00000032,-0.00000075,-0.00000471,0.00000171,-0.00000492,0.00
 001087,0.00000468,-0.00000459,0.00000173,0.00000421,0.00000573,0.00000
 202,-0.00000325,-0.00000176,0.00000036,0.00000149,0.00000389,0.0000087
 5,0.00000872,-0.00000689,0.00000421,0.00000479,0.00000262,-0.00001144,
 -0.00004465,0.00005025,-0.00001164,0.00000566,0.00000151,0.00002271,-0
 .00002218,-0.00006854,0.00003400,0.00011096,0.00009909,-0.00006111,-0.
 00012197,-0.00010959,0.00002008,0.00001897,0.00002482,0.00006621,0.000
 01622,0.00004756,-0.00003409,0.00003075,0.00004097,-0.00025787,0.00032
 942,-0.00056156,0.00002094,-0.00004358,-0.00001345,-0.00005461,-0.0000
 0364,-0.00002461,0.00000406,0.00000369,0.00000903,0.00000560,-0.000002
 45,-0.00000793,-0.00000201,-0.00000278,0.00000028,0.00002632,-0.000002
 04,-0.00002625,-0.00001013,-0.00001754,0.00000451,0.00000224,-0.000000
 17,0.00000356,0.00000220,-0.00000033,0.00000023,0.00000006,-0.00000029
 ,-0.00000086,-0.00000012,-0.00000023,0.00000037,-0.00000086,-0.0000005
 5,-0.00000018,0.00000023,-0.00000067,-0.00000464,-0.00000023,0.0000003
 9,0.00000010,0.00000499,0.00000252,0.00000731,-0.00002317,0.00000993,-
 0.00000355,-0.00000618,-0.00000757,-0.00000366,0.00003215,0.00003281,-
 0.00003409,-0.00001361,-0.00000637,-0.00000996,-0.00000089,0.00000256,
 -0.00000222,0.00000132,-0.00000048,-0.00000044,-0.00000056,-0.00000049
 ,0.00000063,0.00000023,-0.00000016,-0.00000027,-0.00000011,0.00000005,
 -0.00000020,-0.00000022,0.00000006,0.00000018,-0.00000033,0.00000056,0
 .00000048,-0.00000009,0.00000051,-0.00000009,0.00000005,-0.00000022,0.
 00000025,0.00000004,0.,-0.00000026,-0.00000103,-0.00000048,0.00000090,
 0.00000044,-0.00000070,-0.00000024,0.00000018,-0.00000024,0.00000037,-
 0.00000014,0.00000107,-0.00000031,-0.00000459,0.00000270,-0.00001275,0
 .00000266,-0.00000665,0.00000308,-0.00000011,0.00000059,0.00000013,0.0
 0000045,0.00000097,-0.00000100,0.00000065,-0.00000163,-0.00000196,0.00
 000142,0.00000120,0.00000346,-0.00000035,0.00000021,-0.00000210,0.0000
 0070,-0.00000021,-0.00000048,0.00000021,-0.00000109,-0.00000060,-0.000
 00159,-0.00000022,0.00000276,-0.00000094,-0.00000021,-0.00000130,0.000
 00059,-0.00000071,-0.00000029,0.00000063,0.00000046,-0.00000130,-0.000
 01457,0.00000667,0.00000461,-0.00000765,-0.00001910,0.00000285,0.00000
 150,0.00000524,-0.00000067,-0.00000404,0.00000352,-0.00000357,0.000002
 21,0.00000150,0.00000067,0.00000254,0.00000454,-0.00000126,0.00000193,
 -0.00000190,0.00000042,-0.00000191,0.00000026,0.00000033,-0.00000362,0
 .00000074,-0.00000092,0.00000067,0.00000047,0.00000005,-0.00000142,-0.
 00000450,0.00000213,-0.00000065,0.00000041,0.00000096,0.00000066,0.000
 00005,-0.00000171,0.00000069,0.00000043,0.00000021,-0.00000011,0.00000
 482,-0.00000228,0.00000405,-0.00000048,0.00001004,0.00002637,0.0000678
 0,-0.00095450,0.00345546,-0.00244514,0.00423272,0.00368279,-0.00089286
 ,0.00498550,-0.00462559,-0.01098458,0.00231267,-0.00014072,-0.00060931
 ,0.00007986,0.00341861,0.00888794,0.00410989,0.00024075,0.00039201,0.0
 0020848,-0.00179477,-0.02534952,-0.03935728,-0.00151090,0.00110889,-0.
 00272505,-0.00169370,0.00078866,-0.00294772,-0.00078819,0.02874341,0.0
 3064847\\0.00000137,0.00000012,-0.00000262,0.00000045,0.00000088,-0.00
 000041,0.00000082,0.00000129,0.00000052,-0.00000108,-0.00000045,-0.000
 00213,0.00000335,0.00000245,-0.00000014,0.00000109,0.00000193,0.000000
 28,0.00000100,0.00000086,-0.00000115,0.00000109,0.00000151,-0.00000054
 ,0.00000127,0.00000162,-0.00000003,-0.00000094,-0.00000022,0.00000128,
 0.00000032,0.00000171,-0.00000039,0.00000061,0.00000214,0.00000084,0.0
 0000269,0.00000317,-0.00000059,-0.00000085,0.00000136,-0.00000182,-0.0
 0000062,0.00000026,-0.00000011,0.00000176,0.00000114,0.00000206,0.0000
 0035,-0.00000427,-0.00000412,0.00000238,-0.00000222,-0.00000096,-0.000
 00329,0.00000202,0.00000063,-0.00000249,-0.00000043,-0.00000059,-0.000
 00008,0.00000160,0.00000089,0.00000041,-0.00000143,0.00000389,-0.00000
 136,0.00000110,0.00000046,-0.00000023,-0.00000312,0.00000186,-0.000000
 50,-0.00000045,0.00000004,0.00000129,0.00000012,-0.00000102,-0.0000009
 6,0.00000025,-0.00000082,-0.00000144,0.00000028,-0.00000413,-0.0000006
 6,-0.00000165,-0.00000004,-0.00000052,0.00000002,0.00000109,0.00000037
 ,0.00000175,0.00000163,-0.00000032,0.00000125,0.00000168,0.00000016,0.
 00000183,0.00000136,0.00000064,-0.00000053,-0.00000183,0.00000124,-0.0
 0000062,-0.00000282,0.00000097,-0.00000121,-0.00000156,0.00000043,-0.0
 0000045,0.00000006,0.00000074,-0.00000106,-0.00000112,0.00000010,0.000
 00283,0.,0.00000041,0.00000035,0.00000062,-0.00000052,0.00000104,-0.00
 000235,0.00000060,0.00000184,0.00000068,0.00000046,-0.00000215,0.00000
 438,0.00000086,0.00000065,0.00000049,0.00000045,-0.00000082,-0.0000014
 0,-0.00000024,-0.00000132,-0.00000171,-0.00000041,-0.00000106,0.000000
 34,0.00000104,-0.00000131,-0.00000307,-0.00000132,-0.00000279,-0.00000
 163,0.,-0.00000143,-0.00000117,0.00000006,-0.00000197,-0.00000269,0.00
 000014,-0.00000238,-0.00000191,-0.00000008,-0.00000152,-0.00000241,0.0
 0000014,-0.00000159,-0.00000193,-0.00000042,-0.00000148,-0.00000031,-0
 .00000062,-0.00000215,-0.00000125,-0.00000048,-0.00000155,-0.00000132,
 0.00000033,0.00000093,0.00000045,0.00000070,0.00000153,0.00000025,0.00
 000116,0.00000160,0.00000003,0.00000086,0.00000172,0.00000057,0.000000
 72,0.00000159,-0.00000002,0.00000035,0.00000067,-0.00000023,0.00000009
 ,0.00000078,0.00000032,0.00000202,0.00000033,-0.00000026,0.00000057,0.
 00000077,-0.00000010,0.00000029,0.00000117,0.00000077,-0.00000003,0.00
 000055,0.00000100,0.00000047,0.00000125,0.00000035,0.00000011,0.000001
 64,0.00000132,-0.00000007,-0.00000025,0.00000025,-0.00000060,-0.000000
 05,0.00000054,-0.00000021,0.00000003,0.00000029,-0.00000053,-0.0000001
 7,0.00000074,-0.00000065,-0.00000006,0.00000122,-0.00000011,-0.0000003
 7,-0.00000040,-0.00000005,-0.00000056,-0.00000066,-0.00000003,-0.00000
 028,0.00000020,-0.00000067,-0.00000016,0.00000121,0.00000003,-0.000000
 45,-0.00000049,-0.00000036,-0.00000016,0.00000051,-0.00000074,-0.00000
 044,0.00000083,-0.00000035,0.00000013,0.00000091,-0.00000033,-0.000000
 34,0.00000046,-0.00000046,-0.00000031,0.00000031,0.00000039,-0.0000012
 2,-0.00000114,-0.00000091,0.,-0.00000085,-0.00000157,-0.00000036,0.000
 00241,-0.00000114,-0.00000091,0.00000082,-0.00000066,-0.00000035,0.000
 00194,-0.00000023,-0.00000063,0.00000182,-0.00000151,-0.00000068,0.000
 00179,-0.00000109,-0.00000117,0.00000086,-0.00000138,-0.00000031,0.000
 00215,-0.00000101,0.00000026,0.00000234,-0.00000154,-0.00000101,0.0000
 0188,-0.00000152,-0.00000045,0.00000265\\\@


 THE TEST OF A FIRST RATE INTELLIGENCE IS THE ABILITY TO HOLD TWO OPPOSED
 IDEAS IN THE MIND AT THE SAME TIME, AND STILL RETAIN THE ABILITY TO FUNCTION.
 ONE SHOULD, FOR EXAMPLE, BE ABLE TO SEE THAT THINGS ARE HOPELESS AND YET BE
 DETERMINED TO MAKE THEM OTHERWISE.

                                                       -- F. SCOTT FITZGERALD
 Job cpu time:       1 days 19 hours  3 minutes 39.9 seconds.
 Elapsed time:       0 days  3 hours 35 minutes 42.7 seconds.
 File lengths (MBytes):  RWF=  18869 Int=      0 D2E=      0 Chk=    143 Scr=      1
 Normal termination of Gaussian 16 at Fri May 20 20:33:02 2022.
