 Entering Gaussian System, Link 0=g16
 Input=Pro_R_E_c1_4_m06l.com
 Output=Pro_R_E_c1_4_m06l.log
 Initial command:
 /apps/gaussian16/B.01/AVX2/g16/l1.exe "/tmp/51822065/Gau-25708.inp" -scrdir="/tmp/51822065/"
 Entering Link 1 = /apps/gaussian16/B.01/AVX2/g16/l1.exe PID=     25709.
  
 Copyright (c) 1988-2017, Gaussian, Inc.  All Rights Reserved.
  
 This is part of the Gaussian(R) 16 program.  It is based on
 the Gaussian(R) 09 system (copyright 2009, Gaussian, Inc.),
 the Gaussian(R) 03 system (copyright 2003, Gaussian, Inc.),
 the Gaussian(R) 98 system (copyright 1998, Gaussian, Inc.),
 the Gaussian(R) 94 system (copyright 1995, Gaussian, Inc.),
 the Gaussian 92(TM) system (copyright 1992, Gaussian, Inc.),
 the Gaussian 90(TM) system (copyright 1990, Gaussian, Inc.),
 the Gaussian 88(TM) system (copyright 1988, Gaussian, Inc.),
 the Gaussian 86(TM) system (copyright 1986, Carnegie Mellon
 University), and the Gaussian 82(TM) system (copyright 1983,
 Carnegie Mellon University). Gaussian is a federally registered
 trademark of Gaussian, Inc.
  
 This software contains proprietary and confidential information,
 including trade secrets, belonging to Gaussian, Inc.
  
 This software is provided under written license and may be
 used, copied, transmitted, or stored only in accord with that
 written license.
  
 The following legend is applicable only to US Government
 contracts under FAR:
  
                    RESTRICTED RIGHTS LEGEND
  
 Use, reproduction and disclosure by the US Government is
 subject to restrictions as set forth in subparagraphs (a)
 and (c) of the Commercial Computer Software - Restricted
 Rights clause in FAR 52.227-19.
  
 Gaussian, Inc.
 340 Quinnipiac St., Bldg. 40, Wallingford CT 06492
  
  
 ---------------------------------------------------------------
 Warning -- This program may not be used in any manner that
 competes with the business of Gaussian, Inc. or will provide
 assistance to any competitor of Gaussian, Inc.  The licensee
 of this program is prohibited from giving any competitor of
 Gaussian, Inc. access to this program.  By using this program,
 the user acknowledges that Gaussian, Inc. is engaged in the
 business of creating and licensing software in the field of
 computational chemistry and represents and warrants to the
 licensee that it is not a competitor of Gaussian, Inc. and that
 it will not use this program in any manner prohibited above.
 ---------------------------------------------------------------
  

 Cite this work as:
 Gaussian 16, Revision B.01,
 M. J. Frisch, G. W. Trucks, H. B. Schlegel, G. E. Scuseria, 
 M. A. Robb, J. R. Cheeseman, G. Scalmani, V. Barone, 
 G. A. Petersson, H. Nakatsuji, X. Li, M. Caricato, A. V. Marenich, 
 J. Bloino, B. G. Janesko, R. Gomperts, B. Mennucci, H. P. Hratchian, 
 J. V. Ortiz, A. F. Izmaylov, J. L. Sonnenberg, D. Williams-Young, 
 F. Ding, F. Lipparini, F. Egidi, J. Goings, B. Peng, A. Petrone, 
 T. Henderson, D. Ranasinghe, V. G. Zakrzewski, J. Gao, N. Rega, 
 G. Zheng, W. Liang, M. Hada, M. Ehara, K. Toyota, R. Fukuda, 
 J. Hasegawa, M. Ishida, T. Nakajima, Y. Honda, O. Kitao, H. Nakai, 
 T. Vreven, K. Throssell, J. A. Montgomery, Jr., J. E. Peralta, 
 F. Ogliaro, M. J. Bearpark, J. J. Heyd, E. N. Brothers, K. N. Kudin, 
 V. N. Staroverov, T. A. Keith, R. Kobayashi, J. Normand, 
 K. Raghavachari, A. P. Rendell, J. C. Burant, S. S. Iyengar, 
 J. Tomasi, M. Cossi, J. M. Millam, M. Klene, C. Adamo, R. Cammi, 
 J. W. Ochterski, R. L. Martin, K. Morokuma, O. Farkas, 
 J. B. Foresman, and D. J. Fox, Gaussian, Inc., Wallingford CT, 2016.
 
 ******************************************
 Gaussian 16:  ES64L-G16RevB.01 20-Dec-2017
                24-Aug-2022 
 ******************************************
 %nprocshared=12
 Will use up to   12 processors via shared memory.
 %mem=24GB
 --------------------------------------------------------------------
 #m06l/gen pseudo=read integral=ultrafine temperature=308 scrf=(read)
 --------------------------------------------------------------------
 1/38=1,40=2,112=308000,172=1/1;
 2/12=2,17=6,18=5,40=1/2;
 3/5=7,11=2,16=1,17=8,25=1,30=1,70=2203,74=-53,75=-5/1,2,3;
 4//1;
 5/5=2,38=5/2;
 6/7=2,8=2,9=2,10=2,28=1/1;
 99/5=1,9=1/99;
 -------------------
 Title Card Required
 -------------------
 Symbolic Z-matrix:
 Charge =  0 Multiplicity = 4
 C                    -2.85561   1.62469  -2.69653 
 C                    -1.95572   2.6739   -2.93014 
 C                    -0.6247    2.6009   -2.42969 
 C                    -0.27668   1.42722  -1.65405 
 C                    -2.42171   0.51334  -1.94792 
 H                     0.16337   4.49058  -3.20902 
 H                    -3.87926   1.64883  -3.09658 
 H                    -2.2639    3.55307  -3.51689 
 C                     0.3961    3.57847  -2.63854 
 C                     1.95567   2.16565  -1.44161 
 C                     1.69216   3.34894  -2.15902 
 H                     2.50961   4.05712  -2.35883 
 N                     0.96689   1.25961  -1.13754 
 N                    -1.16339   0.43799  -1.43184 
 C                    -3.18915  -0.70063  -1.69729 
 C                     3.25018   1.66767  -1.02522 
 N                    -2.7285   -1.6691   -0.94556 
 N                     3.36974   0.43721  -0.5612 
 Ni                    1.53658  -0.25331  -0.01199 
 C                     0.19465  -0.46979   1.36381 
 C                    -0.92851   0.1089    1.91347 
 C                     1.87281  -1.95911   0.95965 
 H                     2.95898  -2.08644   1.1169 
 C                     0.97144  -1.54948   2.12651 
 H                     0.32655  -2.38533   2.50102 
 C                     1.24018  -2.82561  -0.02588 
 H                     1.82359  -3.06791  -0.93072 
 C                    -0.04771  -3.35393   0.05856 
 H                    -0.61242  -3.33898   1.0034 
 H                    -1.35806  -0.47345   2.76035 
 C                     5.40516   1.61298  -0.43768 
 H                     5.56086   2.04726   0.57225 
 H                     6.33818   1.71359  -1.02267 
 C                    -4.7111   -2.29477  -2.07037 
 H                    -4.527    -2.83701  -3.02092 
 H                    -5.78704  -2.3572   -1.82044 
 C                    -3.75044  -2.73944  -0.93006 
 H                    -3.25948  -3.70197  -1.18985 
 C                     4.81662   0.17625  -0.38757 
 H                     4.99002  -0.28094   0.61035 
 O                    -4.38433  -0.88958  -2.29486 
 O                     4.37265   2.40665  -1.10401 
 Ni                   -0.63484  -1.37881  -0.67927 
 Cl                   -0.05502  -2.03488  -2.93549 
 C                    -4.44566  -2.92902   0.46564 
 C                    -5.20678  -1.65331   0.88319 
 H                    -4.52452  -0.78023   0.9372 
 H                    -6.03058  -1.40269   0.18266 
 H                    -5.66187  -1.78867   1.88678 
 C                    -5.42516  -4.11963   0.36004 
 H                    -4.89868  -5.05049   0.05909 
 H                    -5.90774  -4.30801   1.34179 
 H                    -6.23781  -3.93607  -0.37407 
 C                    -3.37897  -3.25657   1.52998 
 H                    -2.64946  -2.42793   1.63188 
 H                    -3.85747  -3.41961   2.5185 
 H                    -2.82107  -4.18064   1.2698 
 C                     5.40678  -0.80365  -1.4662 
 C                     5.27708  -0.21596  -2.88818 
 H                     4.21551  -0.03227  -3.1538 
 H                     5.83608   0.73543  -3.00854 
 H                     5.68478  -0.93079  -3.63304 
 C                     4.64989  -2.14534  -1.40838 
 H                     4.71382  -2.60591  -0.3998 
 H                     3.58081  -2.00846  -1.66553 
 H                     5.08543  -2.8642   -2.13337 
 C                     6.89399  -1.0509   -1.1273 
 H                     7.01101  -1.47978  -0.10906 
 H                     7.33656  -1.76976  -1.84786 
 H                     7.50121  -0.12247  -1.17759 
 C                    -1.62908   1.3748    1.69172 
 C                    -2.97118   1.51866   2.12872 
 C                    -0.99245   2.53553   1.17108 
 C                    -3.67259   2.72826   2.01006 
 H                    -3.48161   0.6521    2.57974 
 C                    -1.67137   3.74918   1.05607 
 H                     0.06672   2.47488   0.8839 
 C                    -3.02494   3.85859   1.46077 
 H                    -4.71471   2.7835    2.35519 
 H                    -1.16912   4.64625   0.66253 
 C                    -4.955     5.25784   1.70958 
 H                    -5.64463   4.58993   1.14681 
 H                    -5.08421   5.0743    2.79954 
 H                    -5.21215   6.3106    1.48842 
 O                    -3.6017    5.08252   1.30226 
 H                    -0.3998   -4.03977  -0.72551 
 C                     1.72075  -0.99806   3.33476 
 C                     1.56162  -1.59711   4.60335 
 C                     2.59247   0.11104   3.22657 
 C                     2.24962  -1.10857   5.72966 
 H                     0.88621  -2.46255   4.70905 
 C                     3.28097   0.60218   4.34837 
 H                     2.7223    0.5955    2.24324 
 C                     3.113    -0.00637   5.60688 
 H                     2.108    -1.59377   6.70897 
 H                     3.95212   1.46993   4.24114 
 H                     3.65164   0.3794    6.48717 
 
 Stoichiometry    C41H46ClN4Ni2O3(4)
 Framework group  C1[X(C41H46ClN4Ni2O3)]
 Deg. of freedom   285
 Full point group                 C1      NOp   1
 Largest Abelian subgroup         C1      NOp   1
 Largest concise Abelian subgroup C1      NOp   1
                         Standard orientation:                         
 ---------------------------------------------------------------------
 Center     Atomic      Atomic             Coordinates (Angstroms)
 Number     Number       Type             X           Y           Z
 ---------------------------------------------------------------------
      1          6           0       -2.855608    1.624690   -2.696529
      2          6           0       -1.955720    2.673896   -2.930144
      3          6           0       -0.624700    2.600902   -2.429690
      4          6           0       -0.276680    1.427223   -1.654051
      5          6           0       -2.421710    0.513341   -1.947918
      6          1           0        0.163366    4.490584   -3.209024
      7          1           0       -3.879261    1.648833   -3.096578
      8          1           0       -2.263896    3.553066   -3.516890
      9          6           0        0.396104    3.578472   -2.638535
     10          6           0        1.955668    2.165646   -1.441611
     11          6           0        1.692158    3.348944   -2.159017
     12          1           0        2.509609    4.057116   -2.358831
     13          7           0        0.966890    1.259608   -1.137542
     14          7           0       -1.163391    0.437994   -1.431838
     15          6           0       -3.189149   -0.700625   -1.697288
     16          6           0        3.250184    1.667665   -1.025221
     17          7           0       -2.728503   -1.669102   -0.945562
     18          7           0        3.369736    0.437208   -0.561199
     19         28           0        1.536575   -0.253312   -0.011993
     20          6           0        0.194651   -0.469788    1.363808
     21          6           0       -0.928508    0.108899    1.913465
     22          6           0        1.872806   -1.959113    0.959651
     23          1           0        2.958977   -2.086441    1.116899
     24          6           0        0.971436   -1.549478    2.126506
     25          1           0        0.326548   -2.385333    2.501015
     26          6           0        1.240182   -2.825605   -0.025876
     27          1           0        1.823588   -3.067909   -0.930717
     28          6           0       -0.047705   -3.353925    0.058561
     29          1           0       -0.612420   -3.338977    1.003399
     30          1           0       -1.358057   -0.473452    2.760345
     31          6           0        5.405159    1.612984   -0.437681
     32          1           0        5.560860    2.047265    0.572253
     33          1           0        6.338181    1.713591   -1.022670
     34          6           0       -4.711099   -2.294773   -2.070375
     35          1           0       -4.527004   -2.837011   -3.020921
     36          1           0       -5.787035   -2.357203   -1.820443
     37          6           0       -3.750443   -2.739440   -0.930061
     38          1           0       -3.259476   -3.701972   -1.189846
     39          6           0        4.816623    0.176251   -0.387569
     40          1           0        4.990017   -0.280941    0.610350
     41          8           0       -4.384334   -0.889576   -2.294864
     42          8           0        4.372645    2.406648   -1.104010
     43         28           0       -0.634838   -1.378807   -0.679267
     44         17           0       -0.055019   -2.034879   -2.935487
     45          6           0       -4.445663   -2.929022    0.465640
     46          6           0       -5.206783   -1.653313    0.883190
     47          1           0       -4.524520   -0.780234    0.937197
     48          1           0       -6.030580   -1.402692    0.182662
     49          1           0       -5.661872   -1.788672    1.886775
     50          6           0       -5.425156   -4.119629    0.360040
     51          1           0       -4.898682   -5.050486    0.059093
     52          1           0       -5.907742   -4.308013    1.341791
     53          1           0       -6.237806   -3.936069   -0.374067
     54          6           0       -3.378972   -3.256573    1.529980
     55          1           0       -2.649457   -2.427931    1.631882
     56          1           0       -3.857473   -3.419613    2.518502
     57          1           0       -2.821066   -4.180640    1.269796
     58          6           0        5.406783   -0.803651   -1.466201
     59          6           0        5.277083   -0.215962   -2.888181
     60          1           0        4.215505   -0.032270   -3.153796
     61          1           0        5.836081    0.735431   -3.008536
     62          1           0        5.684775   -0.930787   -3.633038
     63          6           0        4.649888   -2.145335   -1.408384
     64          1           0        4.713824   -2.605911   -0.399803
     65          1           0        3.580810   -2.008455   -1.665533
     66          1           0        5.085429   -2.864195   -2.133367
     67          6           0        6.893993   -1.050896   -1.127304
     68          1           0        7.011011   -1.479779   -0.109057
     69          1           0        7.336563   -1.769757   -1.847857
     70          1           0        7.501205   -0.122474   -1.177589
     71          6           0       -1.629081    1.374801    1.691723
     72          6           0       -2.971184    1.518663    2.128722
     73          6           0       -0.992449    2.535533    1.171081
     74          6           0       -3.672593    2.728257    2.010065
     75          1           0       -3.481605    0.652102    2.579738
     76          6           0       -1.671372    3.749179    1.056071
     77          1           0        0.066719    2.474883    0.883895
     78          6           0       -3.024941    3.858590    1.460769
     79          1           0       -4.714708    2.783501    2.355186
     80          1           0       -1.169121    4.646245    0.662532
     81          6           0       -4.954997    5.257842    1.709583
     82          1           0       -5.644630    4.589933    1.146810
     83          1           0       -5.084211    5.074295    2.799535
     84          1           0       -5.212154    6.310601    1.488415
     85          8           0       -3.601696    5.082524    1.302261
     86          1           0       -0.399797   -4.039770   -0.725512
     87          6           0        1.720748   -0.998062    3.334761
     88          6           0        1.561623   -1.597108    4.603354
     89          6           0        2.592472    0.111041    3.226572
     90          6           0        2.249625   -1.108567    5.729662
     91          1           0        0.886206   -2.462550    4.709052
     92          6           0        3.280971    0.602179    4.348367
     93          1           0        2.722302    0.595499    2.243245
     94          6           0        3.112998   -0.006371    5.606880
     95          1           0        2.107997   -1.593766    6.708969
     96          1           0        3.952118    1.469928    4.241138
     97          1           0        3.651644    0.379398    6.487165
 ---------------------------------------------------------------------
 Rotational constants (GHZ):           0.0687520           0.0453652           0.0440171
 General basis read from cards:  (5D, 7F)
 ======================================================================================================
                                       Pseudopotential Parameters
 ======================================================================================================
  Center     Atomic      Valence      Angular      Power
  Number     Number     Electrons     Momentum     of R      Exponent        Coefficient   SO-Coeffient
 ======================================================================================================
    1          6
                                   No pseudopotential on this center.
    2          6
                                   No pseudopotential on this center.
    3          6
                                   No pseudopotential on this center.
    4          6
                                   No pseudopotential on this center.
    5          6
                                   No pseudopotential on this center.
    6          1
                                   No pseudopotential on this center.
    7          1
                                   No pseudopotential on this center.
    8          1
                                   No pseudopotential on this center.
    9          6
                                   No pseudopotential on this center.
   10          6
                                   No pseudopotential on this center.
   11          6
                                   No pseudopotential on this center.
   12          1
                                   No pseudopotential on this center.
   13          7
                                   No pseudopotential on this center.
   14          7
                                   No pseudopotential on this center.
   15          6
                                   No pseudopotential on this center.
   16          6
                                   No pseudopotential on this center.
   17          7
                                   No pseudopotential on this center.
   18          7
                                   No pseudopotential on this center.
   19         28           18
                                      D and up 
                                                     1      469.9324331      -10.00000000    0.00000000
                                                     2       85.4236411      -69.40848050    0.00000000
                                                     2       21.2674984      -12.09510200    0.00000000
                                      S - D
                                                     0      162.1686097        3.00000000    0.00000000
                                                     1      176.5333232       22.02536180    0.00000000
                                                     2       68.9562010      443.01810880    0.00000000
                                                     2       13.5792838      145.56964110    0.00000000
                                      P - D
                                                     0       69.0181506        5.00000000    0.00000000
                                                     1      275.5955596        4.98828240    0.00000000
                                                     2       47.1315453      256.69458530    0.00000000
                                                     2       12.9874075       78.47544500    0.00000000
   20          6
                                   No pseudopotential on this center.
   21          6
                                   No pseudopotential on this center.
   22          6
                                   No pseudopotential on this center.
   23          1
                                   No pseudopotential on this center.
   24          6
                                   No pseudopotential on this center.
   25          1
                                   No pseudopotential on this center.
   26          6
                                   No pseudopotential on this center.
   27          1
                                   No pseudopotential on this center.
   28          6
                                   No pseudopotential on this center.
   29          1
                                   No pseudopotential on this center.
   30          1
                                   No pseudopotential on this center.
   31          6
                                   No pseudopotential on this center.
   32          1
                                   No pseudopotential on this center.
   33          1
                                   No pseudopotential on this center.
   34          6
                                   No pseudopotential on this center.
   35          1
                                   No pseudopotential on this center.
   36          1
                                   No pseudopotential on this center.
   37          6
                                   No pseudopotential on this center.
   38          1
                                   No pseudopotential on this center.
   39          6
                                   No pseudopotential on this center.
   40          1
                                   No pseudopotential on this center.
   41          8
                                   No pseudopotential on this center.
   42          8
                                   No pseudopotential on this center.
   43         28           18
                                      D and up 
                                                     1      469.9324331      -10.00000000    0.00000000
                                                     2       85.4236411      -69.40848050    0.00000000
                                                     2       21.2674984      -12.09510200    0.00000000
                                      S - D
                                                     0      162.1686097        3.00000000    0.00000000
                                                     1      176.5333232       22.02536180    0.00000000
                                                     2       68.9562010      443.01810880    0.00000000
                                                     2       13.5792838      145.56964110    0.00000000
                                      P - D
                                                     0       69.0181506        5.00000000    0.00000000
                                                     1      275.5955596        4.98828240    0.00000000
                                                     2       47.1315453      256.69458530    0.00000000
                                                     2       12.9874075       78.47544500    0.00000000
   44         17
                                   No pseudopotential on this center.
   45          6
                                   No pseudopotential on this center.
   46          6
                                   No pseudopotential on this center.
   47          1
                                   No pseudopotential on this center.
   48          1
                                   No pseudopotential on this center.
   49          1
                                   No pseudopotential on this center.
   50          6
                                   No pseudopotential on this center.
   51          1
                                   No pseudopotential on this center.
   52          1
                                   No pseudopotential on this center.
   53          1
                                   No pseudopotential on this center.
   54          6
                                   No pseudopotential on this center.
   55          1
                                   No pseudopotential on this center.
   56          1
                                   No pseudopotential on this center.
   57          1
                                   No pseudopotential on this center.
   58          6
                                   No pseudopotential on this center.
   59          6
                                   No pseudopotential on this center.
   60          1
                                   No pseudopotential on this center.
   61          1
                                   No pseudopotential on this center.
   62          1
                                   No pseudopotential on this center.
   63          6
                                   No pseudopotential on this center.
   64          1
                                   No pseudopotential on this center.
   65          1
                                   No pseudopotential on this center.
   66          1
                                   No pseudopotential on this center.
   67          6
                                   No pseudopotential on this center.
   68          1
                                   No pseudopotential on this center.
   69          1
                                   No pseudopotential on this center.
   70          1
                                   No pseudopotential on this center.
   71          6
                                   No pseudopotential on this center.
   72          6
                                   No pseudopotential on this center.
   73          6
                                   No pseudopotential on this center.
   74          6
                                   No pseudopotential on this center.
   75          1
                                   No pseudopotential on this center.
   76          6
                                   No pseudopotential on this center.
   77          1
                                   No pseudopotential on this center.
   78          6
                                   No pseudopotential on this center.
   79          1
                                   No pseudopotential on this center.
   80          1
                                   No pseudopotential on this center.
   81          6
                                   No pseudopotential on this center.
   82          1
                                   No pseudopotential on this center.
   83          1
                                   No pseudopotential on this center.
   84          1
                                   No pseudopotential on this center.
   85          8
                                   No pseudopotential on this center.
   86          1
                                   No pseudopotential on this center.
   87          6
                                   No pseudopotential on this center.
   88          6
                                   No pseudopotential on this center.
   89          6
                                   No pseudopotential on this center.
   90          6
                                   No pseudopotential on this center.
   91          1
                                   No pseudopotential on this center.
   92          6
                                   No pseudopotential on this center.
   93          1
                                   No pseudopotential on this center.
   94          6
                                   No pseudopotential on this center.
   95          1
                                   No pseudopotential on this center.
   96          1
                                   No pseudopotential on this center.
   97          1
                                   No pseudopotential on this center.
 ======================================================================================================
 There are  2094 symmetry adapted cartesian basis functions of A   symmetry.
 There are  1845 symmetry adapted basis functions of A   symmetry.
  1845 basis functions,  2989 primitive gaussians,  2094 cartesian basis functions
   200 alpha electrons      197 beta electrons
       nuclear repulsion energy      8565.7669492698 Hartrees.
 NAtoms=   97 NActive=   97 NUniq=   97 SFac= 1.00D+00 NAtFMM=   60 NAOKFM=T Big=T
 Integral buffers will be    131072 words long.
 Raffenetti 2 integral format.
 Two-electron integral symmetry is turned on.
 Using the following non-standard input for PCM:
 Eps=4.5
 --- end of non-standard input.
 ------------------------------------------------------------------------------
 Polarizable Continuum Model (PCM)
 =================================
 Model                : PCM.
 Atomic radii         : UFF (Universal Force Field).
 Polarization charges : Total charges.
 Charge compensation  : None.
 Solution method      : On-the-fly selection.
 Cavity type          : Scaled VdW (van der Waals Surface) (Alpha=1.100).
 Cavity algorithm     : GePol (No added spheres)
                        Default sphere list used, NSphG=   97.
                        Lebedev-Laikov grids with approx.  5.0 points / Ang**2.
                        Smoothing algorithm: York/Karplus (Gamma=1.0000).
                        Polarization charges: spherical gaussians, with
                                              point-specific exponents (IZeta= 3).
                        Self-potential: point-specific (ISelfS= 7).
                        Self-field    : sphere-specific E.n sum rule (ISelfD= 2).
 Solvent              : Water, Eps=   4.500000 Eps(inf)=   1.777849
 ------------------------------------------------------------------------------
 One-electron integrals computed using PRISM.
   1 Symmetry operations used in ECPInt.
 ECPInt:  NShTT=  274911 NPrTT=  843013 LenC2=  206443 LenP2D=  414344.
 LDataN:  DoStor=T MaxTD1= 6 Len=  172
 NBasis=  1845 RedAO= T EigKep=  5.76D-06  NBF=  1845
 NBsUse=  1845 1.00D-06 EigRej= -1.00D+00 NBFU=  1845
 ExpMin= 2.40D-02 ExpMax= 6.95D+04 ExpMxC= 2.37D+03 IAcc=3 IRadAn=         5 AccDes= 0.00D+00
 Harris functional with IExCor= 1009 and IRadAn=       5 diagonalized for initial guess.
 HarFok:  IExCor= 1009 AccDes= 0.00D+00 IRadAn=         5 IDoV= 1 UseB2=F ITyADJ=14
 ICtDFT=  3500011 ScaDFX=  1.000000  1.000000  1.000000  1.000000
 FoFCou: FMM=F IPFlag=           0 FMFlag=      100000 FMFlg1=        2001
         NFxFlg=           0 DoJE=T BraDBF=F KetDBF=T FulRan=T
         wScrn=  0.000000 ICntrl=       500 IOpCl=  0 I1Cent=   200000004 NGrid=           0
         NMat0=    1 NMatS0=      1 NMatT0=    0 NMatD0=    1 NMtDS0=    0 NMtDT0=    0
 Petite list used in FoFCou.
 Initial guess <Sx>= 0.0000 <Sy>= 0.0000 <Sz>= 1.5000 <S**2>= 3.7500 S= 1.5000
 Requested convergence on RMS density matrix=1.00D-08 within 128 cycles.
 Requested convergence on MAX density matrix=1.00D-06.
 Requested convergence on             energy=1.00D-06.
 No special actions if energy rises.
 Inv3:  Mode=1 IEnd=   104819763.
 Iteration    1 A*A^-1 deviation from unit magnitude is 3.55D-15 for   4442.
 Iteration    1 A*A^-1 deviation from orthogonality  is 3.77D-15 for   4044   2840.
 Iteration    1 A^-1*A deviation from unit magnitude is 3.55D-15 for   3174.
 Iteration    1 A^-1*A deviation from orthogonality  is 5.94D-15 for   4059   4044.
 EnCoef did   100 forward-backward iterations
 EnCoef did   100 forward-backward iterations
 EnCoef did     3 forward-backward iterations
 EnCoef did     3 forward-backward iterations
 EnCoef did     3 forward-backward iterations
 EnCoef did     3 forward-backward iterations
 EnCoef did   100 forward-backward iterations
 EnCoef did     2 forward-backward iterations
 EnCoef did     1 forward-backward iterations
 Restarting incremental Fock formation.
 Error on total polarization charges =  0.01820
 SCF Done:  E(UM06L) =  -2834.21764571     A.U. after   33 cycles
            NFock= 33  Conv=0.43D-08     -V/T= 2.0518
 <Sx>= 0.0000 <Sy>= 0.0000 <Sz>= 1.5000 <S**2>= 3.7933 S= 1.5108
 <L.S>=  0.00000000000    
 Annihilation of the first spin contaminant:
 S**2 before annihilation     3.7933,   after     3.7507

 **********************************************************************

            Population analysis using the SCF Density.

 **********************************************************************

 Orbital symmetries:
 Alpha Orbitals:
       Occupied  (A) (A) (A) (A) (A) (A) (A) (A) (A) (A) (A) (A)
                 (A) (A) (A) (A) (A) (A) (A) (A) (A) (A) (A) (A)
                 (A) (A) (A) (A) (A) (A) (A) (A) (A) (A) (A) (A)
                 (A) (A) (A) (A) (A) (A) (A) (A) (A) (A) (A) (A)
                 (A) (A) (A) (A) (A) (A) (A) (A) (A) (A) (A) (A)
                 (A) (A) (A) (A) (A) (A) (A) (A) (A) (A) (A) (A)
                 (A) (A) (A) (A) (A) (A) (A) (A) (A) (A) (A) (A)
                 (A) (A) (A) (A) (A) (A) (A) (A) (A) (A) (A) (A)
                 (A) (A) (A) (A) (A) (A) (A) (A) (A) (A) (A) (A)
                 (A) (A) (A) (A) (A) (A) (A) (A) (A) (A) (A) (A)
                 (A) (A) (A) (A) (A) (A) (A) (A) (A) (A) (A) (A)
                 (A) (A) (A) (A) (A) (A) (A) (A) (A) (A) (A) (A)
                 (A) (A) (A) (A) (A) (A) (A) (A) (A) (A) (A) (A)
                 (A) (A) (A) (A) (A) (A) (A) (A) (A) (A) (A) (A)
                 (A) (A) (A) (A) (A) (A) (A) (A) (A) (A) (A) (A)
                 (A) (A) (A) (A) (A) (A) (A) (A) (A) (A) (A) (A)
                 (A) (A) (A) (A) (A) (A) (A) (A)
       Virtual   (A) (A) (A) (A) (A) (A) (A) (A) (A) (A) (A) (A)
                 (A) (A) (A) (A) (A) (A) (A) (A) (A) (A) (A) (A)
                 (A) (A) (A) (A) (A) (A) (A) (A) (A) (A) (A) (A)
                 (A) (A) (A) (A) (A) (A) (A) (A) (A) (A) (A) (A)
                 (A) (A) (A) (A) (A) (A) (A) (A) (A) (A) (A) (A)
                 (A) (A) (A) (A) (A) (A) (A) (A) (A) (A) (A) (A)
                 (A) (A) (A) (A) (A) (A) (A) (A) (A) (A) (A) (A)
                 (A) (A) (A) (A) (A) (A) (A) (A) (A) (A) (A) (A)
                 (A) (A) (A) (A) (A) (A) (A) (A) (A) (A) (A) (A)
                 (A) (A) (A) (A) (A) (A) (A) (A) (A) (A) (A) (A)
                 (A) (A) (A) (A) (A) (A) (A) (A) (A) (A) (A) (A)
                 (A) (A) (A) (A) (A) (A) (A) (A) (A) (A) (A) (A)
                 (A) (A) (A) (A) (A) (A) (A) (A) (A) (A) (A) (A)
                 (A) (A) (A) (A) (A) (A) (A) (A) (A) (A) (A) (A)
                 (A) (A) (A) (A) (A) (A) (A) (A) (A) (A) (A) (A)
                 (A) (A) (A) (A) (A) (A) (A) (A) (A) (A) (A) (A)
                 (A) (A) (A) (A) (A) (A) (A) (A) (A) (A) (A) (A)
                 (A) (A) (A) (A) (A) (A) (A) (A) (A) (A) (A) (A)
                 (A) (A) (A) (A) (A) (A) (A) (A) (A) (A) (A) (A)
                 (A) (A) (A) (A) (A) (A) (A) (A) (A) (A) (A) (A)
                 (A) (A) (A) (A) (A) (A) (A) (A) (A) (A) (A) (A)
                 (A) (A) (A) (A) (A) (A) (A) (A) (A) (A) (A) (A)
                 (A) (A) (A) (A) (A) (A) (A) (A) (A) (A) (A) (A)
                 (A) (A) (A) (A) (A) (A) (A) (A) (A) (A) (A) (A)
                 (A) (A) (A) (A) (A) (A) (A) (A) (A) (A) (A) (A)
                 (A) (A) (A) (A) (A) (A) (A) (A) (A) (A) (A) (A)
                 (A) (A) (A) (A) (A) (A) (A) (A) (A) (A) (A) (A)
                 (A) (A) (A) (A) (A) (A) (A) (A) (A) (A) (A) (A)
                 (A) (A) (A) (A) (A) (A) (A) (A) (A) (A) (A) (A)
                 (A) (A) (A) (A) (A) (A) (A) (A) (A) (A) (A) (A)
                 (A) (A) (A) (A) (A) (A) (A) (A) (A) (A) (A) (A)
                 (A) (A) (A) (A) (A) (A) (A) (A) (A) (A) (A) (A)
                 (A) (A) (A) (A) (A) (A) (A) (A) (A) (A) (A) (A)
                 (A) (A) (A) (A) (A) (A) (A) (A) (A) (A) (A) (A)
                 (A) (A) (A) (A) (A) (A) (A) (A) (A) (A) (A) (A)
                 (A) (A) (A) (A) (A) (A) (A) (A) (A) (A) (A) (A)
                 (A) (A) (A) (A) (A) (A) (A) (A) (A) (A) (A) (A)
                 (A) (A) (A) (A) (A) (A) (A) (A) (A) (A) (A) (A)
                 (A) (A) (A) (A) (A) (A) (A) (A) (A) (A) (A) (A)
                 (A) (A) (A) (A) (A) (A) (A) (A) (A) (A) (A) (A)
                 (A) (A) (A) (A) (A) (A) (A) (A) (A) (A) (A) (A)
                 (A) (A) (A) (A) (A) (A) (A) (A) (A) (A) (A) (A)
                 (A) (A) (A) (A) (A) (A) (A) (A) (A) (A) (A) (A)
                 (A) (A) (A) (A) (A) (A) (A) (A) (A) (A) (A) (A)
                 (A) (A) (A) (A) (A) (A) (A) (A) (A) (A) (A) (A)
                 (A) (A) (A) (A) (A) (A) (A) (A) (A) (A) (A) (A)
                 (A) (A) (A) (A) (A) (A) (A) (A) (A) (A) (A) (A)
                 (A) (A) (A) (A) (A) (A) (A) (A) (A) (A) (A) (A)
                 (A) (A) (A) (A) (A) (A) (A) (A) (A) (A) (A) (A)
                 (A) (A) (A) (A) (A) (A) (A) (A) (A) (A) (A) (A)
                 (A) (A) (A) (A) (A) (A) (A) (A) (A) (A) (A) (A)
                 (A) (A) (A) (A) (A) (A) (A) (A) (A) (A) (A) (A)
                 (A) (A) (A) (A) (A) (A) (A) (A) (A) (A) (A) (A)
                 (A) (A) (A) (A) (A) (A) (A) (A) (A) (A) (A) (A)
                 (A) (A) (A) (A) (A) (A) (A) (A) (A) (A) (A) (A)
                 (A) (A) (A) (A) (A) (A) (A) (A) (A) (A) (A) (A)
                 (A) (A) (A) (A) (A) (A) (A) (A) (A) (A) (A) (A)
                 (A) (A) (A) (A) (A) (A) (A) (A) (A) (A) (A) (A)
                 (A) (A) (A) (A) (A) (A) (A) (A) (A) (A) (A) (A)
                 (A) (A) (A) (A) (A) (A) (A) (A) (A) (A) (A) (A)
                 (A) (A) (A) (A) (A) (A) (A) (A) (A) (A) (A) (A)
                 (A) (A) (A) (A) (A) (A) (A) (A) (A) (A) (A) (A)
                 (A) (A) (A) (A) (A) (A) (A) (A) (A) (A) (A) (A)
                 (A) (A) (A) (A) (A) (A) (A) (A) (A) (A) (A) (A)
                 (A) (A) (A) (A) (A) (A) (A) (A) (A) (A) (A) (A)
                 (A) (A) (A) (A) (A) (A) (A) (A) (A) (A) (A) (A)
                 (A) (A) (A) (A) (A) (A) (A) (A) (A) (A) (A) (A)
                 (A) (A) (A) (A) (A) (A) (A) (A) (A) (A) (A) (A)
                 (A) (A) (A) (A) (A) (A) (A) (A) (A) (A) (A) (A)
                 (A) (A) (A) (A) (A) (A) (A) (A) (A) (A) (A) (A)
                 (A) (A) (A) (A) (A) (A) (A) (A) (A) (A) (A) (A)
                 (A) (A) (A) (A) (A) (A) (A) (A) (A) (A) (A) (A)
                 (A) (A) (A) (A) (A) (A) (A) (A) (A) (A) (A) (A)
                 (A) (A) (A) (A) (A) (A) (A) (A) (A) (A) (A) (A)
                 (A) (A) (A) (A) (A) (A) (A) (A) (A) (A) (A) (A)
                 (A) (A) (A) (A) (A) (A) (A) (A) (A) (A) (A) (A)
                 (A) (A) (A) (A) (A) (A) (A) (A) (A) (A) (A) (A)
                 (A) (A) (A) (A) (A) (A) (A) (A) (A) (A) (A) (A)
                 (A) (A) (A) (A) (A) (A) (A) (A) (A) (A) (A) (A)
                 (A) (A) (A) (A) (A) (A) (A) (A) (A) (A) (A) (A)
                 (A) (A) (A) (A) (A) (A) (A) (A) (A) (A) (A) (A)
                 (A) (A) (A) (A) (A) (A) (A) (A) (A) (A) (A) (A)
                 (A) (A) (A) (A) (A) (A) (A) (A) (A) (A) (A) (A)
                 (A) (A) (A) (A) (A) (A) (A) (A) (A) (A) (A) (A)
                 (A) (A) (A) (A) (A) (A) (A) (A) (A) (A) (A) (A)
                 (A) (A) (A) (A) (A) (A) (A) (A) (A) (A) (A) (A)
                 (A) (A) (A) (A) (A) (A) (A) (A) (A) (A) (A) (A)
                 (A) (A) (A) (A) (A) (A) (A) (A) (A) (A) (A) (A)
                 (A) (A) (A) (A) (A) (A) (A) (A) (A) (A) (A) (A)
                 (A) (A) (A) (A) (A) (A) (A) (A) (A) (A) (A) (A)
                 (A) (A) (A) (A) (A) (A) (A) (A) (A) (A) (A) (A)
                 (A) (A) (A) (A) (A) (A) (A) (A) (A) (A) (A) (A)
                 (A) (A) (A) (A) (A) (A) (A) (A) (A) (A) (A) (A)
                 (A) (A) (A) (A) (A) (A) (A) (A) (A) (A) (A) (A)
                 (A) (A) (A) (A) (A) (A) (A) (A) (A) (A) (A) (A)
                 (A) (A) (A) (A) (A) (A) (A) (A) (A) (A) (A) (A)
                 (A) (A) (A) (A) (A) (A) (A) (A) (A) (A) (A) (A)
                 (A) (A) (A) (A) (A) (A) (A) (A) (A) (A) (A) (A)
                 (A) (A) (A) (A) (A) (A) (A) (A) (A) (A) (A) (A)
                 (A) (A) (A) (A) (A) (A) (A) (A) (A) (A) (A) (A)
                 (A) (A) (A) (A) (A) (A) (A) (A) (A) (A) (A) (A)
                 (A) (A) (A) (A) (A) (A) (A) (A) (A) (A) (A) (A)
                 (A) (A) (A) (A) (A) (A) (A) (A) (A) (A) (A) (A)
                 (A) (A) (A) (A) (A) (A) (A) (A) (A) (A) (A) (A)
                 (A) (A) (A) (A) (A) (A) (A) (A) (A) (A) (A) (A)
                 (A) (A) (A) (A) (A) (A) (A) (A) (A) (A) (A) (A)
                 (A) (A) (A) (A) (A) (A) (A) (A) (A) (A) (A) (A)
                 (A) (A) (A) (A) (A) (A) (A) (A) (A) (A) (A) (A)
                 (A) (A) (A) (A) (A) (A) (A) (A) (A) (A) (A) (A)
                 (A) (A) (A) (A) (A) (A) (A) (A) (A) (A) (A) (A)
                 (A) (A) (A) (A) (A) (A) (A) (A) (A) (A) (A) (A)
                 (A) (A) (A) (A) (A) (A) (A) (A) (A) (A) (A) (A)
                 (A) (A) (A) (A) (A) (A) (A) (A) (A) (A) (A) (A)
                 (A) (A) (A) (A) (A) (A) (A) (A) (A) (A) (A) (A)
                 (A) (A) (A) (A) (A) (A) (A) (A) (A) (A) (A) (A)
                 (A) (A) (A) (A) (A) (A) (A) (A) (A) (A) (A) (A)
                 (A) (A) (A) (A) (A) (A) (A) (A) (A) (A) (A) (A)
                 (A) (A) (A) (A) (A) (A) (A) (A) (A) (A) (A) (A)
                 (A) (A) (A) (A) (A) (A) (A) (A) (A) (A) (A) (A)
                 (A) (A) (A) (A) (A) (A) (A) (A) (A) (A) (A) (A)
                 (A) (A) (A) (A) (A) (A) (A) (A) (A) (A) (A) (A)
                 (A) (A) (A) (A) (A) (A) (A) (A) (A) (A) (A) (A)
                 (A) (A) (A) (A) (A) (A) (A) (A) (A) (A) (A) (A)
                 (A) (A) (A) (A) (A) (A) (A) (A) (A) (A) (A) (A)
                 (A) (A) (A) (A) (A) (A) (A) (A) (A) (A) (A) (A)
                 (A) (A) (A) (A) (A) (A) (A) (A) (A) (A) (A) (A)
                 (A) (A) (A) (A) (A) (A) (A) (A) (A) (A) (A) (A)
                 (A) (A) (A) (A) (A) (A) (A) (A) (A) (A) (A) (A)
                 (A) (A) (A) (A) (A) (A) (A) (A) (A) (A) (A) (A)
                 (A) (A) (A) (A) (A) (A) (A) (A) (A) (A) (A) (A)
                 (A) (A) (A) (A) (A) (A) (A) (A) (A) (A) (A) (A)
                 (A) (A) (A) (A) (A) (A) (A) (A) (A) (A) (A) (A)
                 (A) (A) (A) (A) (A) (A) (A) (A) (A) (A) (A) (A)
                 (A) (A) (A) (A) (A) (A) (A) (A) (A) (A) (A) (A)
                 (A) (A) (A) (A) (A) (A) (A) (A) (A) (A) (A) (A)
                 (A) (A) (A) (A) (A) (A) (A) (A) (A) (A) (A) (A)
                 (A) (A) (A) (A) (A) (A) (A) (A) (A) (A) (A) (A)
                 (A)
 Beta  Orbitals:
       Occupied  (A) (A) (A) (A) (A) (A) (A) (A) (A) (A) (A) (A)
                 (A) (A) (A) (A) (A) (A) (A) (A) (A) (A) (A) (A)
                 (A) (A) (A) (A) (A) (A) (A) (A) (A) (A) (A) (A)
                 (A) (A) (A) (A) (A) (A) (A) (A) (A) (A) (A) (A)
                 (A) (A) (A) (A) (A) (A) (A) (A) (A) (A) (A) (A)
                 (A) (A) (A) (A) (A) (A) (A) (A) (A) (A) (A) (A)
                 (A) (A) (A) (A) (A) (A) (A) (A) (A) (A) (A) (A)
                 (A) (A) (A) (A) (A) (A) (A) (A) (A) (A) (A) (A)
                 (A) (A) (A) (A) (A) (A) (A) (A) (A) (A) (A) (A)
                 (A) (A) (A) (A) (A) (A) (A) (A) (A) (A) (A) (A)
                 (A) (A) (A) (A) (A) (A) (A) (A) (A) (A) (A) (A)
                 (A) (A) (A) (A) (A) (A) (A) (A) (A) (A) (A) (A)
                 (A) (A) (A) (A) (A) (A) (A) (A) (A) (A) (A) (A)
                 (A) (A) (A) (A) (A) (A) (A) (A) (A) (A) (A) (A)
                 (A) (A) (A) (A) (A) (A) (A) (A) (A) (A) (A) (A)
                 (A) (A) (A) (A) (A) (A) (A) (A) (A) (A) (A) (A)
                 (A) (A) (A) (A) (A)
       Virtual   (A) (A) (A) (A) (A) (A) (A) (A) (A) (A) (A) (A)
                 (A) (A) (A) (A) (A) (A) (A) (A) (A) (A) (A) (A)
                 (A) (A) (A) (A) (A) (A) (A) (A) (A) (A) (A) (A)
                 (A) (A) (A) (A) (A) (A) (A) (A) (A) (A) (A) (A)
                 (A) (A) (A) (A) (A) (A) (A) (A) (A) (A) (A) (A)
                 (A) (A) (A) (A) (A) (A) (A) (A) (A) (A) (A) (A)
                 (A) (A) (A) (A) (A) (A) (A) (A) (A) (A) (A) (A)
                 (A) (A) (A) (A) (A) (A) (A) (A) (A) (A) (A) (A)
                 (A) (A) (A) (A) (A) (A) (A) (A) (A) (A) (A) (A)
                 (A) (A) (A) (A) (A) (A) (A) (A) (A) (A) (A) (A)
                 (A) (A) (A) (A) (A) (A) (A) (A) (A) (A) (A) (A)
                 (A) (A) (A) (A) (A) (A) (A) (A) (A) (A) (A) (A)
                 (A) (A) (A) (A) (A) (A) (A) (A) (A) (A) (A) (A)
                 (A) (A) (A) (A) (A) (A) (A) (A) (A) (A) (A) (A)
                 (A) (A) (A) (A) (A) (A) (A) (A) (A) (A) (A) (A)
                 (A) (A) (A) (A) (A) (A) (A) (A) (A) (A) (A) (A)
                 (A) (A) (A) (A) (A) (A) (A) (A) (A) (A) (A) (A)
                 (A) (A) (A) (A) (A) (A) (A) (A) (A) (A) (A) (A)
                 (A) (A) (A) (A) (A) (A) (A) (A) (A) (A) (A) (A)
                 (A) (A) (A) (A) (A) (A) (A) (A) (A) (A) (A) (A)
                 (A) (A) (A) (A) (A) (A) (A) (A) (A) (A) (A) (A)
                 (A) (A) (A) (A) (A) (A) (A) (A) (A) (A) (A) (A)
                 (A) (A) (A) (A) (A) (A) (A) (A) (A) (A) (A) (A)
                 (A) (A) (A) (A) (A) (A) (A) (A) (A) (A) (A) (A)
                 (A) (A) (A) (A) (A) (A) (A) (A) (A) (A) (A) (A)
                 (A) (A) (A) (A) (A) (A) (A) (A) (A) (A) (A) (A)
                 (A) (A) (A) (A) (A) (A) (A) (A) (A) (A) (A) (A)
                 (A) (A) (A) (A) (A) (A) (A) (A) (A) (A) (A) (A)
                 (A) (A) (A) (A) (A) (A) (A) (A) (A) (A) (A) (A)
                 (A) (A) (A) (A) (A) (A) (A) (A) (A) (A) (A) (A)
                 (A) (A) (A) (A) (A) (A) (A) (A) (A) (A) (A) (A)
                 (A) (A) (A) (A) (A) (A) (A) (A) (A) (A) (A) (A)
                 (A) (A) (A) (A) (A) (A) (A) (A) (A) (A) (A) (A)
                 (A) (A) (A) (A) (A) (A) (A) (A) (A) (A) (A) (A)
                 (A) (A) (A) (A) (A) (A) (A) (A) (A) (A) (A) (A)
                 (A) (A) (A) (A) (A) (A) (A) (A) (A) (A) (A) (A)
                 (A) (A) (A) (A) (A) (A) (A) (A) (A) (A) (A) (A)
                 (A) (A) (A) (A) (A) (A) (A) (A) (A) (A) (A) (A)
                 (A) (A) (A) (A) (A) (A) (A) (A) (A) (A) (A) (A)
                 (A) (A) (A) (A) (A) (A) (A) (A) (A) (A) (A) (A)
                 (A) (A) (A) (A) (A) (A) (A) (A) (A) (A) (A) (A)
                 (A) (A) (A) (A) (A) (A) (A) (A) (A) (A) (A) (A)
                 (A) (A) (A) (A) (A) (A) (A) (A) (A) (A) (A) (A)
                 (A) (A) (A) (A) (A) (A) (A) (A) (A) (A) (A) (A)
                 (A) (A) (A) (A) (A) (A) (A) (A) (A) (A) (A) (A)
                 (A) (A) (A) (A) (A) (A) (A) (A) (A) (A) (A) (A)
                 (A) (A) (A) (A) (A) (A) (A) (A) (A) (A) (A) (A)
                 (A) (A) (A) (A) (A) (A) (A) (A) (A) (A) (A) (A)
                 (A) (A) (A) (A) (A) (A) (A) (A) (A) (A) (A) (A)
                 (A) (A) (A) (A) (A) (A) (A) (A) (A) (A) (A) (A)
                 (A) (A) (A) (A) (A) (A) (A) (A) (A) (A) (A) (A)
                 (A) (A) (A) (A) (A) (A) (A) (A) (A) (A) (A) (A)
                 (A) (A) (A) (A) (A) (A) (A) (A) (A) (A) (A) (A)
                 (A) (A) (A) (A) (A) (A) (A) (A) (A) (A) (A) (A)
                 (A) (A) (A) (A) (A) (A) (A) (A) (A) (A) (A) (A)
                 (A) (A) (A) (A) (A) (A) (A) (A) (A) (A) (A) (A)
                 (A) (A) (A) (A) (A) (A) (A) (A) (A) (A) (A) (A)
                 (A) (A) (A) (A) (A) (A) (A) (A) (A) (A) (A) (A)
                 (A) (A) (A) (A) (A) (A) (A) (A) (A) (A) (A) (A)
                 (A) (A) (A) (A) (A) (A) (A) (A) (A) (A) (A) (A)
                 (A) (A) (A) (A) (A) (A) (A) (A) (A) (A) (A) (A)
                 (A) (A) (A) (A) (A) (A) (A) (A) (A) (A) (A) (A)
                 (A) (A) (A) (A) (A) (A) (A) (A) (A) (A) (A) (A)
                 (A) (A) (A) (A) (A) (A) (A) (A) (A) (A) (A) (A)
                 (A) (A) (A) (A) (A) (A) (A) (A) (A) (A) (A) (A)
                 (A) (A) (A) (A) (A) (A) (A) (A) (A) (A) (A) (A)
                 (A) (A) (A) (A) (A) (A) (A) (A) (A) (A) (A) (A)
                 (A) (A) (A) (A) (A) (A) (A) (A) (A) (A) (A) (A)
                 (A) (A) (A) (A) (A) (A) (A) (A) (A) (A) (A) (A)
                 (A) (A) (A) (A) (A) (A) (A) (A) (A) (A) (A) (A)
                 (A) (A) (A) (A) (A) (A) (A) (A) (A) (A) (A) (A)
                 (A) (A) (A) (A) (A) (A) (A) (A) (A) (A) (A) (A)
                 (A) (A) (A) (A) (A) (A) (A) (A) (A) (A) (A) (A)
                 (A) (A) (A) (A) (A) (A) (A) (A) (A) (A) (A) (A)
                 (A) (A) (A) (A) (A) (A) (A) (A) (A) (A) (A) (A)
                 (A) (A) (A) (A) (A) (A) (A) (A) (A) (A) (A) (A)
                 (A) (A) (A) (A) (A) (A) (A) (A) (A) (A) (A) (A)
                 (A) (A) (A) (A) (A) (A) (A) (A) (A) (A) (A) (A)
                 (A) (A) (A) (A) (A) (A) (A) (A) (A) (A) (A) (A)
                 (A) (A) (A) (A) (A) (A) (A) (A) (A) (A) (A) (A)
                 (A) (A) (A) (A) (A) (A) (A) (A) (A) (A) (A) (A)
                 (A) (A) (A) (A) (A) (A) (A) (A) (A) (A) (A) (A)
                 (A) (A) (A) (A) (A) (A) (A) (A) (A) (A) (A) (A)
                 (A) (A) (A) (A) (A) (A) (A) (A) (A) (A) (A) (A)
                 (A) (A) (A) (A) (A) (A) (A) (A) (A) (A) (A) (A)
                 (A) (A) (A) (A) (A) (A) (A) (A) (A) (A) (A) (A)
                 (A) (A) (A) (A) (A) (A) (A) (A) (A) (A) (A) (A)
                 (A) (A) (A) (A) (A) (A) (A) (A) (A) (A) (A) (A)
                 (A) (A) (A) (A) (A) (A) (A) (A) (A) (A) (A) (A)
                 (A) (A) (A) (A) (A) (A) (A) (A) (A) (A) (A) (A)
                 (A) (A) (A) (A) (A) (A) (A) (A) (A) (A) (A) (A)
                 (A) (A) (A) (A) (A) (A) (A) (A) (A) (A) (A) (A)
                 (A) (A) (A) (A) (A) (A) (A) (A) (A) (A) (A) (A)
                 (A) (A) (A) (A) (A) (A) (A) (A) (A) (A) (A) (A)
                 (A) (A) (A) (A) (A) (A) (A) (A) (A) (A) (A) (A)
                 (A) (A) (A) (A) (A) (A) (A) (A) (A) (A) (A) (A)
                 (A) (A) (A) (A) (A) (A) (A) (A) (A) (A) (A) (A)
                 (A) (A) (A) (A) (A) (A) (A) (A) (A) (A) (A) (A)
                 (A) (A) (A) (A) (A) (A) (A) (A) (A) (A) (A) (A)
                 (A) (A) (A) (A) (A) (A) (A) (A) (A) (A) (A) (A)
                 (A) (A) (A) (A) (A) (A) (A) (A) (A) (A) (A) (A)
                 (A) (A) (A) (A) (A) (A) (A) (A) (A) (A) (A) (A)
                 (A) (A) (A) (A) (A) (A) (A) (A) (A) (A) (A) (A)
                 (A) (A) (A) (A) (A) (A) (A) (A) (A) (A) (A) (A)
                 (A) (A) (A) (A) (A) (A) (A) (A) (A) (A) (A) (A)
                 (A) (A) (A) (A) (A) (A) (A) (A) (A) (A) (A) (A)
                 (A) (A) (A) (A) (A) (A) (A) (A) (A) (A) (A) (A)
                 (A) (A) (A) (A) (A) (A) (A) (A) (A) (A) (A) (A)
                 (A) (A) (A) (A) (A) (A) (A) (A) (A) (A) (A) (A)
                 (A) (A) (A) (A) (A) (A) (A) (A) (A) (A) (A) (A)
                 (A) (A) (A) (A) (A) (A) (A) (A) (A) (A) (A) (A)
                 (A) (A) (A) (A) (A) (A) (A) (A) (A) (A) (A) (A)
                 (A) (A) (A) (A) (A) (A) (A) (A) (A) (A) (A) (A)
                 (A) (A) (A) (A) (A) (A) (A) (A) (A) (A) (A) (A)
                 (A) (A) (A) (A) (A) (A) (A) (A) (A) (A) (A) (A)
                 (A) (A) (A) (A) (A) (A) (A) (A) (A) (A) (A) (A)
                 (A) (A) (A) (A) (A) (A) (A) (A) (A) (A) (A) (A)
                 (A) (A) (A) (A) (A) (A) (A) (A) (A) (A) (A) (A)
                 (A) (A) (A) (A) (A) (A) (A) (A) (A) (A) (A) (A)
                 (A) (A) (A) (A) (A) (A) (A) (A) (A) (A) (A) (A)
                 (A) (A) (A) (A) (A) (A) (A) (A) (A) (A) (A) (A)
                 (A) (A) (A) (A) (A) (A) (A) (A) (A) (A) (A) (A)
                 (A) (A) (A) (A) (A) (A) (A) (A) (A) (A) (A) (A)
                 (A) (A) (A) (A) (A) (A) (A) (A) (A) (A) (A) (A)
                 (A) (A) (A) (A) (A) (A) (A) (A) (A) (A) (A) (A)
                 (A) (A) (A) (A) (A) (A) (A) (A) (A) (A) (A) (A)
                 (A) (A) (A) (A) (A) (A) (A) (A) (A) (A) (A) (A)
                 (A) (A) (A) (A) (A) (A) (A) (A) (A) (A) (A) (A)
                 (A) (A) (A) (A) (A) (A) (A) (A) (A) (A) (A) (A)
                 (A) (A) (A) (A) (A) (A) (A) (A) (A) (A) (A) (A)
                 (A) (A) (A) (A) (A) (A) (A) (A) (A) (A) (A) (A)
                 (A) (A) (A) (A) (A) (A) (A) (A) (A) (A) (A) (A)
                 (A) (A) (A) (A) (A) (A) (A) (A) (A) (A) (A) (A)
                 (A) (A) (A) (A) (A) (A) (A) (A) (A) (A) (A) (A)
                 (A) (A) (A) (A) (A) (A) (A) (A) (A) (A) (A) (A)
                 (A) (A) (A) (A) (A) (A) (A) (A) (A) (A) (A) (A)
                 (A) (A) (A) (A) (A) (A) (A) (A) (A) (A) (A) (A)
                 (A) (A) (A) (A)
 The electronic state is 4-A.
 Alpha  occ. eigenvalues -- -101.07360 -19.02699 -19.02050 -19.00710 -14.19387
 Alpha  occ. eigenvalues --  -14.19033 -14.18817 -14.18261 -10.15931 -10.15486
 Alpha  occ. eigenvalues --  -10.13133 -10.12469 -10.11919 -10.11907 -10.10930
 Alpha  occ. eigenvalues --  -10.10603 -10.10559 -10.10313 -10.09917 -10.08635
 Alpha  occ. eigenvalues --  -10.07710 -10.07643 -10.07631 -10.07616 -10.07325
 Alpha  occ. eigenvalues --  -10.07185 -10.07119 -10.06616 -10.06542 -10.06235
 Alpha  occ. eigenvalues --  -10.06042 -10.05966 -10.05774 -10.05766 -10.05720
 Alpha  occ. eigenvalues --  -10.05687 -10.05537 -10.05529 -10.05480 -10.05471
 Alpha  occ. eigenvalues --  -10.05464 -10.05456 -10.04797 -10.04795 -10.04545
 Alpha  occ. eigenvalues --  -10.04481 -10.04407 -10.04348 -10.04149  -9.30329
 Alpha  occ. eigenvalues --   -7.00789  -7.00479  -7.00434  -4.06793  -4.00011
 Alpha  occ. eigenvalues --   -2.65702  -2.65136  -2.64627  -2.59941  -2.58850
 Alpha  occ. eigenvalues --   -2.57344  -1.07808  -1.07195  -1.04357  -0.95095
 Alpha  occ. eigenvalues --   -0.90542  -0.88540  -0.87484  -0.82070  -0.81573
 Alpha  occ. eigenvalues --   -0.79642  -0.79333  -0.78730  -0.78668  -0.75993
 Alpha  occ. eigenvalues --   -0.74921  -0.74708  -0.73021  -0.72900  -0.71376
 Alpha  occ. eigenvalues --   -0.70653  -0.70581  -0.69584  -0.68061  -0.67233
 Alpha  occ. eigenvalues --   -0.65751  -0.65141  -0.65063  -0.64886  -0.64705
 Alpha  occ. eigenvalues --   -0.64501  -0.63162  -0.61220  -0.60946  -0.60594
 Alpha  occ. eigenvalues --   -0.58679  -0.57538  -0.57007  -0.56420  -0.56290
 Alpha  occ. eigenvalues --   -0.55599  -0.54610  -0.52478  -0.51490  -0.50747
 Alpha  occ. eigenvalues --   -0.50221  -0.49730  -0.49506  -0.49069  -0.48589
 Alpha  occ. eigenvalues --   -0.47059  -0.46810  -0.46622  -0.46302  -0.45978
 Alpha  occ. eigenvalues --   -0.44867  -0.44395  -0.44266  -0.43147  -0.43125
 Alpha  occ. eigenvalues --   -0.42899  -0.42394  -0.41947  -0.41610  -0.41218
 Alpha  occ. eigenvalues --   -0.41163  -0.41075  -0.40961  -0.40820  -0.40477
 Alpha  occ. eigenvalues --   -0.40244  -0.39794  -0.39492  -0.39380  -0.39049
 Alpha  occ. eigenvalues --   -0.38710  -0.38495  -0.38050  -0.37814  -0.37554
 Alpha  occ. eigenvalues --   -0.37326  -0.37145  -0.36629  -0.35825  -0.35726
 Alpha  occ. eigenvalues --   -0.35587  -0.35423  -0.34995  -0.34791  -0.34751
 Alpha  occ. eigenvalues --   -0.34277  -0.34078  -0.33975  -0.33779  -0.33577
 Alpha  occ. eigenvalues --   -0.33434  -0.33248  -0.33210  -0.33058  -0.32866
 Alpha  occ. eigenvalues --   -0.32450  -0.32285  -0.31639  -0.31533  -0.31433
 Alpha  occ. eigenvalues --   -0.31319  -0.31076  -0.30809  -0.30369  -0.30170
 Alpha  occ. eigenvalues --   -0.30062  -0.29797  -0.29664  -0.29612  -0.29537
 Alpha  occ. eigenvalues --   -0.29354  -0.28459  -0.27555  -0.26526  -0.26119
 Alpha  occ. eigenvalues --   -0.25398  -0.25280  -0.25066  -0.24377  -0.24079
 Alpha  occ. eigenvalues --   -0.23638  -0.23375  -0.23230  -0.22899  -0.22367
 Alpha  occ. eigenvalues --   -0.22024  -0.21596  -0.21233  -0.21050  -0.20530
 Alpha  occ. eigenvalues --   -0.19785  -0.19455  -0.17277  -0.16323  -0.13586
 Alpha virt. eigenvalues --   -0.09672  -0.09243  -0.06617  -0.04449  -0.04060
 Alpha virt. eigenvalues --   -0.03841  -0.03455  -0.03181  -0.01121   0.00241
 Alpha virt. eigenvalues --    0.00760   0.01209   0.01594   0.02318   0.02694
 Alpha virt. eigenvalues --    0.03245   0.03777   0.04782   0.04862   0.05099
 Alpha virt. eigenvalues --    0.05460   0.05743   0.05988   0.06341   0.06358
 Alpha virt. eigenvalues --    0.06639   0.06692   0.06947   0.07258   0.07339
 Alpha virt. eigenvalues --    0.07721   0.07864   0.08101   0.08552   0.08641
 Alpha virt. eigenvalues --    0.08827   0.09306   0.09375   0.09639   0.09668
 Alpha virt. eigenvalues --    0.09887   0.10078   0.10333   0.10530   0.10615
 Alpha virt. eigenvalues --    0.10805   0.11004   0.11286   0.11357   0.11519
 Alpha virt. eigenvalues --    0.11736   0.11753   0.12033   0.12237   0.12589
 Alpha virt. eigenvalues --    0.12681   0.12759   0.13033   0.13071   0.13405
 Alpha virt. eigenvalues --    0.13557   0.13812   0.14111   0.14313   0.14345
 Alpha virt. eigenvalues --    0.14644   0.14902   0.15105   0.15171   0.15216
 Alpha virt. eigenvalues --    0.15505   0.15590   0.15749   0.15894   0.16282
 Alpha virt. eigenvalues --    0.16527   0.16721   0.16835   0.17105   0.17199
 Alpha virt. eigenvalues --    0.17420   0.17929   0.18330   0.18399   0.18847
 Alpha virt. eigenvalues --    0.19065   0.19181   0.19462   0.19708   0.19787
 Alpha virt. eigenvalues --    0.20081   0.20324   0.20577   0.20802   0.21062
 Alpha virt. eigenvalues --    0.21391   0.21422   0.21615   0.21867   0.22157
 Alpha virt. eigenvalues --    0.22653   0.22731   0.22795   0.22880   0.23326
 Alpha virt. eigenvalues --    0.23463   0.23517   0.23845   0.24075   0.24366
 Alpha virt. eigenvalues --    0.24545   0.24625   0.24832   0.25016   0.25088
 Alpha virt. eigenvalues --    0.25343   0.25408   0.25566   0.26057   0.26126
 Alpha virt. eigenvalues --    0.26293   0.26360   0.26578   0.26669   0.26908
 Alpha virt. eigenvalues --    0.27100   0.27193   0.27436   0.27648   0.27911
 Alpha virt. eigenvalues --    0.28098   0.28323   0.28591   0.28854   0.28950
 Alpha virt. eigenvalues --    0.29050   0.29235   0.29332   0.29573   0.29759
 Alpha virt. eigenvalues --    0.29881   0.30113   0.30321   0.30816   0.30849
 Alpha virt. eigenvalues --    0.30888   0.31120   0.31334   0.31850   0.31872
 Alpha virt. eigenvalues --    0.32050   0.32151   0.32495   0.32660   0.32914
 Alpha virt. eigenvalues --    0.33069   0.33231   0.33435   0.33514   0.33774
 Alpha virt. eigenvalues --    0.34093   0.34259   0.34349   0.34362   0.34487
 Alpha virt. eigenvalues --    0.34706   0.35094   0.35142   0.35497   0.35604
 Alpha virt. eigenvalues --    0.35922   0.36018   0.36124   0.36361   0.36554
 Alpha virt. eigenvalues --    0.36627   0.36845   0.36988   0.37047   0.37299
 Alpha virt. eigenvalues --    0.37484   0.37622   0.37793   0.37967   0.38095
 Alpha virt. eigenvalues --    0.38314   0.38457   0.38674   0.38826   0.38917
 Alpha virt. eigenvalues --    0.39050   0.39252   0.39303   0.39492   0.39616
 Alpha virt. eigenvalues --    0.39895   0.40203   0.40442   0.40565   0.40750
 Alpha virt. eigenvalues --    0.40904   0.41229   0.41438   0.41527   0.41742
 Alpha virt. eigenvalues --    0.41947   0.42055   0.42161   0.42247   0.42362
 Alpha virt. eigenvalues --    0.42490   0.42635   0.42795   0.42953   0.43071
 Alpha virt. eigenvalues --    0.43305   0.43589   0.43731   0.43910   0.44006
 Alpha virt. eigenvalues --    0.44119   0.44276   0.44310   0.44493   0.44607
 Alpha virt. eigenvalues --    0.44952   0.45006   0.45177   0.45246   0.45516
 Alpha virt. eigenvalues --    0.45647   0.45680   0.45916   0.46063   0.46185
 Alpha virt. eigenvalues --    0.46447   0.46767   0.46921   0.47017   0.47198
 Alpha virt. eigenvalues --    0.47328   0.47637   0.47760   0.47972   0.48195
 Alpha virt. eigenvalues --    0.48481   0.48781   0.48824   0.49192   0.49381
 Alpha virt. eigenvalues --    0.49512   0.49638   0.50040   0.50217   0.50427
 Alpha virt. eigenvalues --    0.50581   0.50953   0.51060   0.51286   0.51593
 Alpha virt. eigenvalues --    0.51771   0.52222   0.52483   0.52649   0.52932
 Alpha virt. eigenvalues --    0.53076   0.53280   0.53822   0.54070   0.54200
 Alpha virt. eigenvalues --    0.54262   0.54570   0.54981   0.55279   0.55510
 Alpha virt. eigenvalues --    0.55825   0.56314   0.56505   0.56894   0.57044
 Alpha virt. eigenvalues --    0.57453   0.57906   0.58183   0.58429   0.58836
 Alpha virt. eigenvalues --    0.58885   0.59201   0.59455   0.60042   0.60196
 Alpha virt. eigenvalues --    0.60427   0.60633   0.60839   0.61226   0.61406
 Alpha virt. eigenvalues --    0.61560   0.62027   0.62295   0.62716   0.62783
 Alpha virt. eigenvalues --    0.62955   0.63221   0.63406   0.63647   0.64219
 Alpha virt. eigenvalues --    0.64237   0.64739   0.65058   0.65179   0.65387
 Alpha virt. eigenvalues --    0.65466   0.65769   0.66058   0.66258   0.66471
 Alpha virt. eigenvalues --    0.66878   0.67012   0.67386   0.67545   0.67699
 Alpha virt. eigenvalues --    0.67949   0.68411   0.68642   0.68831   0.69132
 Alpha virt. eigenvalues --    0.69327   0.69472   0.69824   0.70011   0.70446
 Alpha virt. eigenvalues --    0.70584   0.70702   0.70938   0.71085   0.71520
 Alpha virt. eigenvalues --    0.71760   0.72233   0.72497   0.72791   0.72826
 Alpha virt. eigenvalues --    0.73037   0.73425   0.73578   0.73941   0.74338
 Alpha virt. eigenvalues --    0.74474   0.74876   0.75013   0.75283   0.75547
 Alpha virt. eigenvalues --    0.75631   0.76148   0.76186   0.76322   0.76939
 Alpha virt. eigenvalues --    0.77035   0.77366   0.77500   0.78161   0.78342
 Alpha virt. eigenvalues --    0.78792   0.78853   0.79250   0.79743   0.79814
 Alpha virt. eigenvalues --    0.80189   0.80411   0.80532   0.81086   0.81420
 Alpha virt. eigenvalues --    0.81935   0.82124   0.82198   0.82555   0.82589
 Alpha virt. eigenvalues --    0.82828   0.83455   0.83584   0.83923   0.84154
 Alpha virt. eigenvalues --    0.84592   0.85060   0.85168   0.85333   0.85763
 Alpha virt. eigenvalues --    0.86045   0.86367   0.86457   0.86915   0.87285
 Alpha virt. eigenvalues --    0.87608   0.87652   0.87830   0.88116   0.88149
 Alpha virt. eigenvalues --    0.88707   0.88991   0.89394   0.89499   0.89639
 Alpha virt. eigenvalues --    0.90028   0.90220   0.90581   0.91096   0.91346
 Alpha virt. eigenvalues --    0.91529   0.91906   0.92291   0.92589   0.92926
 Alpha virt. eigenvalues --    0.93248   0.93357   0.93605   0.94254   0.94321
 Alpha virt. eigenvalues --    0.94617   0.95068   0.95352   0.95840   0.96175
 Alpha virt. eigenvalues --    0.96475   0.96569   0.96849   0.97440   0.98243
 Alpha virt. eigenvalues --    0.98477   0.98825   0.99099   0.99439   0.99607
 Alpha virt. eigenvalues --    1.00170   1.00445   1.00846   1.01652   1.01908
 Alpha virt. eigenvalues --    1.02291   1.02467   1.02866   1.03076   1.03426
 Alpha virt. eigenvalues --    1.03886   1.04461   1.04474   1.04898   1.05020
 Alpha virt. eigenvalues --    1.05614   1.06151   1.06362   1.06615   1.06918
 Alpha virt. eigenvalues --    1.07124   1.07655   1.07874   1.07965   1.08293
 Alpha virt. eigenvalues --    1.08783   1.08928   1.09625   1.09894   1.10033
 Alpha virt. eigenvalues --    1.10356   1.10384   1.10887   1.11619   1.11899
 Alpha virt. eigenvalues --    1.12042   1.12529   1.12705   1.12895   1.13546
 Alpha virt. eigenvalues --    1.13739   1.14111   1.14211   1.14367   1.14698
 Alpha virt. eigenvalues --    1.15362   1.15440   1.15660   1.15922   1.16039
 Alpha virt. eigenvalues --    1.16528   1.17212   1.17612   1.17715   1.17994
 Alpha virt. eigenvalues --    1.18397   1.18774   1.19102   1.19604   1.19675
 Alpha virt. eigenvalues --    1.19823   1.20110   1.20554   1.20822   1.21602
 Alpha virt. eigenvalues --    1.21656   1.21941   1.22385   1.22550   1.22909
 Alpha virt. eigenvalues --    1.23463   1.23588   1.24040   1.24316   1.24850
 Alpha virt. eigenvalues --    1.25097   1.25271   1.25487   1.25666   1.26397
 Alpha virt. eigenvalues --    1.26601   1.27037   1.27181   1.27521   1.27696
 Alpha virt. eigenvalues --    1.27825   1.28243   1.28565   1.29277   1.29321
 Alpha virt. eigenvalues --    1.29928   1.30199   1.30513   1.30686   1.30947
 Alpha virt. eigenvalues --    1.31112   1.31831   1.32455   1.32720   1.32954
 Alpha virt. eigenvalues --    1.33624   1.33922   1.34086   1.34549   1.34892
 Alpha virt. eigenvalues --    1.35041   1.35467   1.35586   1.35877   1.36289
 Alpha virt. eigenvalues --    1.36973   1.37206   1.37363   1.37640   1.37964
 Alpha virt. eigenvalues --    1.38402   1.39550   1.39684   1.40296   1.40461
 Alpha virt. eigenvalues --    1.41060   1.41427   1.41935   1.42173   1.42521
 Alpha virt. eigenvalues --    1.42925   1.43194   1.43611   1.44104   1.44462
 Alpha virt. eigenvalues --    1.44682   1.45293   1.45486   1.45844   1.46407
 Alpha virt. eigenvalues --    1.46763   1.47025   1.47285   1.47342   1.47835
 Alpha virt. eigenvalues --    1.48299   1.48438   1.48958   1.49193   1.49516
 Alpha virt. eigenvalues --    1.49582   1.49893   1.50313   1.50689   1.51304
 Alpha virt. eigenvalues --    1.51920   1.52035   1.52326   1.52780   1.53003
 Alpha virt. eigenvalues --    1.53305   1.53797   1.54006   1.54209   1.54628
 Alpha virt. eigenvalues --    1.55008   1.55220   1.55456   1.55970   1.56253
 Alpha virt. eigenvalues --    1.56551   1.56665   1.56940   1.57274   1.57491
 Alpha virt. eigenvalues --    1.57688   1.58328   1.58555   1.58637   1.59016
 Alpha virt. eigenvalues --    1.59368   1.59408   1.59704   1.60060   1.60114
 Alpha virt. eigenvalues --    1.60528   1.60578   1.60877   1.60931   1.61407
 Alpha virt. eigenvalues --    1.61783   1.61876   1.62149   1.62326   1.62622
 Alpha virt. eigenvalues --    1.62818   1.62994   1.63453   1.63571   1.64187
 Alpha virt. eigenvalues --    1.64414   1.64708   1.64891   1.65001   1.65373
 Alpha virt. eigenvalues --    1.65624   1.66103   1.66757   1.67174   1.67268
 Alpha virt. eigenvalues --    1.67443   1.67977   1.68241   1.68784   1.69072
 Alpha virt. eigenvalues --    1.69156   1.69601   1.69869   1.70024   1.70300
 Alpha virt. eigenvalues --    1.70517   1.70679   1.71124   1.71861   1.71911
 Alpha virt. eigenvalues --    1.72346   1.72633   1.72727   1.72989   1.73949
 Alpha virt. eigenvalues --    1.74086   1.74364   1.75084   1.75186   1.75450
 Alpha virt. eigenvalues --    1.75959   1.76142   1.76334   1.77086   1.77731
 Alpha virt. eigenvalues --    1.77756   1.77864   1.78412   1.79384   1.79690
 Alpha virt. eigenvalues --    1.80248   1.80527   1.80833   1.81408   1.81852
 Alpha virt. eigenvalues --    1.82050   1.82481   1.83071   1.83574   1.83836
 Alpha virt. eigenvalues --    1.84284   1.85097   1.85373   1.85753   1.86244
 Alpha virt. eigenvalues --    1.86409   1.86522   1.87049   1.87462   1.87665
 Alpha virt. eigenvalues --    1.88024   1.88858   1.88904   1.89218   1.89598
 Alpha virt. eigenvalues --    1.89914   1.90081   1.90370   1.90591   1.91089
 Alpha virt. eigenvalues --    1.91412   1.91697   1.92068   1.92460   1.92859
 Alpha virt. eigenvalues --    1.93142   1.93463   1.93705   1.93968   1.94322
 Alpha virt. eigenvalues --    1.94495   1.94923   1.95328   1.95686   1.96054
 Alpha virt. eigenvalues --    1.96594   1.96842   1.97218   1.97621   1.97798
 Alpha virt. eigenvalues --    1.97986   1.98351   1.98618   1.98914   1.99310
 Alpha virt. eigenvalues --    1.99423   1.99983   2.00407   2.00655   2.01359
 Alpha virt. eigenvalues --    2.02065   2.02394   2.02903   2.03203   2.03519
 Alpha virt. eigenvalues --    2.03638   2.03994   2.04394   2.04917   2.05395
 Alpha virt. eigenvalues --    2.05798   2.06381   2.06432   2.06689   2.07230
 Alpha virt. eigenvalues --    2.07619   2.07810   2.08067   2.08647   2.08983
 Alpha virt. eigenvalues --    2.09380   2.09686   2.09732   2.10093   2.10782
 Alpha virt. eigenvalues --    2.10928   2.11084   2.11530   2.11816   2.12259
 Alpha virt. eigenvalues --    2.12838   2.12946   2.13393   2.13986   2.14236
 Alpha virt. eigenvalues --    2.14253   2.15067   2.15554   2.15707   2.16212
 Alpha virt. eigenvalues --    2.16447   2.16649   2.17122   2.17919   2.18152
 Alpha virt. eigenvalues --    2.18848   2.18912   2.19064   2.19141   2.19521
 Alpha virt. eigenvalues --    2.20171   2.20462   2.20842   2.20972   2.21258
 Alpha virt. eigenvalues --    2.21572   2.21756   2.22260   2.22749   2.23179
 Alpha virt. eigenvalues --    2.23561   2.23644   2.23882   2.24100   2.24259
 Alpha virt. eigenvalues --    2.24381   2.24789   2.25212   2.25256   2.26153
 Alpha virt. eigenvalues --    2.26378   2.26464   2.27286   2.27374   2.27530
 Alpha virt. eigenvalues --    2.28091   2.28363   2.28863   2.28955   2.29937
 Alpha virt. eigenvalues --    2.30213   2.30822   2.31276   2.31433   2.31776
 Alpha virt. eigenvalues --    2.32316   2.32618   2.33045   2.33209   2.33370
 Alpha virt. eigenvalues --    2.33816   2.33899   2.34080   2.34672   2.35018
 Alpha virt. eigenvalues --    2.35298   2.35597   2.36044   2.36419   2.36971
 Alpha virt. eigenvalues --    2.37339   2.37756   2.38153   2.38578   2.38823
 Alpha virt. eigenvalues --    2.38988   2.39415   2.39924   2.40253   2.40438
 Alpha virt. eigenvalues --    2.40739   2.41107   2.41958   2.42306   2.42507
 Alpha virt. eigenvalues --    2.42854   2.43312   2.43542   2.43719   2.44058
 Alpha virt. eigenvalues --    2.44335   2.44913   2.45022   2.45369   2.46344
 Alpha virt. eigenvalues --    2.46356   2.47069   2.47446   2.47544   2.47872
 Alpha virt. eigenvalues --    2.48441   2.48629   2.49150   2.50101   2.50366
 Alpha virt. eigenvalues --    2.50677   2.50889   2.51150   2.51674   2.52106
 Alpha virt. eigenvalues --    2.52378   2.52548   2.52826   2.53362   2.53914
 Alpha virt. eigenvalues --    2.54467   2.54822   2.54933   2.55646   2.55999
 Alpha virt. eigenvalues --    2.56313   2.56491   2.56536   2.56942   2.56972
 Alpha virt. eigenvalues --    2.57299   2.57853   2.58065   2.58279   2.58665
 Alpha virt. eigenvalues --    2.58828   2.59217   2.59511   2.60020   2.60091
 Alpha virt. eigenvalues --    2.60299   2.60632   2.60998   2.61372   2.61514
 Alpha virt. eigenvalues --    2.61635   2.62167   2.62637   2.62678   2.62693
 Alpha virt. eigenvalues --    2.63345   2.63558   2.63760   2.64114   2.64136
 Alpha virt. eigenvalues --    2.64574   2.64921   2.65152   2.65318   2.65457
 Alpha virt. eigenvalues --    2.65712   2.65884   2.66510   2.66852   2.67144
 Alpha virt. eigenvalues --    2.67554   2.68019   2.68168   2.68561   2.68932
 Alpha virt. eigenvalues --    2.69053   2.69527   2.69638   2.69739   2.70378
 Alpha virt. eigenvalues --    2.70499   2.70701   2.70989   2.71166   2.71480
 Alpha virt. eigenvalues --    2.71630   2.71866   2.72123   2.72518   2.72811
 Alpha virt. eigenvalues --    2.72825   2.73479   2.73570   2.73790   2.74177
 Alpha virt. eigenvalues --    2.74727   2.75000   2.75736   2.76019   2.76415
 Alpha virt. eigenvalues --    2.76815   2.77298   2.77540   2.77608   2.77926
 Alpha virt. eigenvalues --    2.78310   2.78784   2.79280   2.79535   2.80181
 Alpha virt. eigenvalues --    2.80343   2.80577   2.80840   2.81123   2.81447
 Alpha virt. eigenvalues --    2.81636   2.81977   2.82798   2.82830   2.83021
 Alpha virt. eigenvalues --    2.83213   2.83592   2.84151   2.84444   2.84896
 Alpha virt. eigenvalues --    2.85089   2.85163   2.85604   2.85780   2.85862
 Alpha virt. eigenvalues --    2.85946   2.86425   2.86883   2.87133   2.87413
 Alpha virt. eigenvalues --    2.87626   2.87996   2.88281   2.88372   2.88981
 Alpha virt. eigenvalues --    2.89372   2.89682   2.89833   2.90166   2.90428
 Alpha virt. eigenvalues --    2.90868   2.91036   2.91112   2.91552   2.91690
 Alpha virt. eigenvalues --    2.91928   2.92447   2.92695   2.92914   2.93142
 Alpha virt. eigenvalues --    2.93459   2.93961   2.94699   2.95393   2.95527
 Alpha virt. eigenvalues --    2.95822   2.96094   2.96339   2.96516   2.97109
 Alpha virt. eigenvalues --    2.97366   2.97991   2.98282   2.98611   2.98987
 Alpha virt. eigenvalues --    2.99234   2.99563   3.00294   3.00549   3.00919
 Alpha virt. eigenvalues --    3.01478   3.01726   3.02194   3.02517   3.02946
 Alpha virt. eigenvalues --    3.03217   3.03625   3.04426   3.04704   3.04807
 Alpha virt. eigenvalues --    3.05089   3.05793   3.06199   3.06295   3.06798
 Alpha virt. eigenvalues --    3.07162   3.07459   3.07827   3.08545   3.08659
 Alpha virt. eigenvalues --    3.09296   3.09676   3.09902   3.10163   3.10292
 Alpha virt. eigenvalues --    3.10757   3.11396   3.11804   3.11903   3.12098
 Alpha virt. eigenvalues --    3.12421   3.12578   3.13275   3.13714   3.13975
 Alpha virt. eigenvalues --    3.14385   3.14593   3.15049   3.15259   3.15388
 Alpha virt. eigenvalues --    3.15585   3.16182   3.16382   3.16651   3.16842
 Alpha virt. eigenvalues --    3.17143   3.17463   3.17663   3.18221   3.18651
 Alpha virt. eigenvalues --    3.18845   3.19319   3.19425   3.19872   3.20115
 Alpha virt. eigenvalues --    3.20557   3.20727   3.21015   3.21312   3.21583
 Alpha virt. eigenvalues --    3.21984   3.22130   3.22362   3.22964   3.23109
 Alpha virt. eigenvalues --    3.23260   3.23511   3.23878   3.23965   3.24166
 Alpha virt. eigenvalues --    3.24484   3.24947   3.25290   3.25496   3.26090
 Alpha virt. eigenvalues --    3.26255   3.26458   3.26853   3.27076   3.27233
 Alpha virt. eigenvalues --    3.27489   3.27748   3.27892   3.28128   3.28626
 Alpha virt. eigenvalues --    3.29091   3.29194   3.29284   3.29427   3.29879
 Alpha virt. eigenvalues --    3.30350   3.30525   3.30639   3.30730   3.31357
 Alpha virt. eigenvalues --    3.31430   3.31879   3.32244   3.32568   3.32950
 Alpha virt. eigenvalues --    3.33206   3.33450   3.33510   3.33686   3.33799
 Alpha virt. eigenvalues --    3.34420   3.34518   3.34932   3.35132   3.35391
 Alpha virt. eigenvalues --    3.35775   3.35995   3.36243   3.36541   3.36850
 Alpha virt. eigenvalues --    3.37103   3.37306   3.37617   3.37875   3.38005
 Alpha virt. eigenvalues --    3.38520   3.38927   3.39184   3.39224   3.39388
 Alpha virt. eigenvalues --    3.39726   3.40000   3.40150   3.40502   3.40906
 Alpha virt. eigenvalues --    3.41118   3.41241   3.41343   3.41789   3.41915
 Alpha virt. eigenvalues --    3.42311   3.42585   3.42602   3.42896   3.43405
 Alpha virt. eigenvalues --    3.43679   3.43778   3.44265   3.44325   3.44643
 Alpha virt. eigenvalues --    3.44924   3.45367   3.45422   3.45625   3.46184
 Alpha virt. eigenvalues --    3.46298   3.46634   3.46770   3.47480   3.47640
 Alpha virt. eigenvalues --    3.47815   3.48051   3.48480   3.48786   3.48992
 Alpha virt. eigenvalues --    3.49197   3.49203   3.49696   3.49862   3.50359
 Alpha virt. eigenvalues --    3.50458   3.50947   3.51145   3.51416   3.51996
 Alpha virt. eigenvalues --    3.52364   3.52457   3.52901   3.53162   3.53425
 Alpha virt. eigenvalues --    3.53675   3.53856   3.54258   3.54506   3.54690
 Alpha virt. eigenvalues --    3.54781   3.55166   3.55654   3.55730   3.56007
 Alpha virt. eigenvalues --    3.56216   3.56692   3.56951   3.57343   3.57756
 Alpha virt. eigenvalues --    3.58107   3.58182   3.58335   3.58726   3.59063
 Alpha virt. eigenvalues --    3.59123   3.59473   3.60275   3.60459   3.60634
 Alpha virt. eigenvalues --    3.61051   3.61319   3.62121   3.62333   3.62932
 Alpha virt. eigenvalues --    3.63441   3.63917   3.64498   3.65056   3.65368
 Alpha virt. eigenvalues --    3.66252   3.66504   3.66721   3.67089   3.67146
 Alpha virt. eigenvalues --    3.67583   3.68192   3.68492   3.68631   3.69276
 Alpha virt. eigenvalues --    3.69962   3.70282   3.70470   3.70895   3.71086
 Alpha virt. eigenvalues --    3.71484   3.71849   3.72163   3.72528   3.73164
 Alpha virt. eigenvalues --    3.73686   3.73885   3.74293   3.74550   3.75278
 Alpha virt. eigenvalues --    3.75914   3.76615   3.76872   3.77169   3.78006
 Alpha virt. eigenvalues --    3.78223   3.78378   3.78588   3.79755   3.80369
 Alpha virt. eigenvalues --    3.80694   3.81223   3.81687   3.81930   3.82185
 Alpha virt. eigenvalues --    3.82444   3.82841   3.83192   3.83456   3.83771
 Alpha virt. eigenvalues --    3.84450   3.85358   3.85927   3.85988   3.86470
 Alpha virt. eigenvalues --    3.86978   3.87282   3.88170   3.88280   3.88951
 Alpha virt. eigenvalues --    3.89711   3.90344   3.90618   3.92085   3.92430
 Alpha virt. eigenvalues --    3.93205   3.93437   3.94385   3.94625   3.95364
 Alpha virt. eigenvalues --    3.96068   3.96626   3.97029   3.97434   3.97789
 Alpha virt. eigenvalues --    3.98319   3.98611   3.99176   4.00380   4.00500
 Alpha virt. eigenvalues --    4.01541   4.01924   4.02310   4.03514   4.03651
 Alpha virt. eigenvalues --    4.03956   4.04095   4.04834   4.05123   4.05940
 Alpha virt. eigenvalues --    4.06028   4.06420   4.06858   4.07052   4.07602
 Alpha virt. eigenvalues --    4.08092   4.08387   4.09910   4.10277   4.11064
 Alpha virt. eigenvalues --    4.11816   4.12981   4.13300   4.13566   4.13923
 Alpha virt. eigenvalues --    4.14147   4.14384   4.14647   4.14702   4.14980
 Alpha virt. eigenvalues --    4.15218   4.15477   4.15846   4.16182   4.16394
 Alpha virt. eigenvalues --    4.16704   4.16918   4.17476   4.18038   4.18271
 Alpha virt. eigenvalues --    4.18468   4.19377   4.19702   4.19907   4.20707
 Alpha virt. eigenvalues --    4.21343   4.21935   4.22457   4.23001   4.23391
 Alpha virt. eigenvalues --    4.23841   4.23968   4.24517   4.24724   4.25133
 Alpha virt. eigenvalues --    4.25529   4.25949   4.26174   4.26465   4.27129
 Alpha virt. eigenvalues --    4.27636   4.27954   4.28336   4.29334   4.29886
 Alpha virt. eigenvalues --    4.30079   4.30857   4.31552   4.31926   4.32858
 Alpha virt. eigenvalues --    4.32997   4.33318   4.33593   4.33723   4.34245
 Alpha virt. eigenvalues --    4.34647   4.34888   4.35157   4.35731   4.36017
 Alpha virt. eigenvalues --    4.36078   4.36754   4.36905   4.37677   4.38005
 Alpha virt. eigenvalues --    4.39236   4.39989   4.40486   4.41498   4.41854
 Alpha virt. eigenvalues --    4.42346   4.43113   4.43306   4.44186   4.44705
 Alpha virt. eigenvalues --    4.44927   4.45314   4.45579   4.46375   4.46549
 Alpha virt. eigenvalues --    4.46796   4.46980   4.48649   4.49143   4.49348
 Alpha virt. eigenvalues --    4.49701   4.50658   4.51821   4.52217   4.52453
 Alpha virt. eigenvalues --    4.52826   4.53507   4.53580   4.55291   4.55895
 Alpha virt. eigenvalues --    4.56341   4.57012   4.57603   4.58848   4.59259
 Alpha virt. eigenvalues --    4.60349   4.61085   4.61231   4.62607   4.64097
 Alpha virt. eigenvalues --    4.64646   4.66218   4.66845   4.68376   4.69881
 Alpha virt. eigenvalues --    4.70234   4.71118   4.71950   4.73471   4.74400
 Alpha virt. eigenvalues --    4.75002   4.75393   4.75726   4.76786   4.76925
 Alpha virt. eigenvalues --    4.78148   4.78961   4.79051   4.80260   4.81550
 Alpha virt. eigenvalues --    4.81955   4.83673   4.84184   4.85038   4.85631
 Alpha virt. eigenvalues --    4.87469   4.88077   4.88636   4.89215   4.89672
 Alpha virt. eigenvalues --    4.90511   4.92574   4.92946   4.94184   4.95727
 Alpha virt. eigenvalues --    4.96326   4.97235   4.97653   4.98352   4.99778
 Alpha virt. eigenvalues --    5.02472   5.03332   5.05891   5.06011   5.06733
 Alpha virt. eigenvalues --    5.06975   5.07362   5.08005   5.08606   5.09076
 Alpha virt. eigenvalues --    5.10108   5.10166   5.10829   5.12920   5.13198
 Alpha virt. eigenvalues --    5.14581   5.14907   5.15674   5.16322   5.17004
[...]
 
              Baa    -0.0031    -1.675    -0.598    -0.559 -0.5805  0.0654  0.8116
    35 H(1)   Bbb    -0.0028    -1.469    -0.524    -0.490 -0.3182  0.8993 -0.3001
              Bcc     0.0059     3.144     1.122     1.049  0.7495  0.4325  0.5012
 
              Baa    -0.0027    -1.435    -0.512    -0.479 -0.3352  0.7235  0.6035
    36 H(1)   Bbb    -0.0021    -1.144    -0.408    -0.382  0.0840 -0.6150  0.7840
              Bcc     0.0048     2.579     0.920     0.860  0.9384  0.3135  0.1453
 
              Baa    -0.0092    -1.231    -0.439    -0.411  0.0254 -0.0311  0.9992
    37 C(13)  Bbb    -0.0078    -1.043    -0.372    -0.348 -0.5808  0.8130  0.0401
              Bcc     0.0169     2.274     0.811     0.758  0.8136  0.5814 -0.0026
 
              Baa    -0.0067    -3.581    -1.278    -1.194 -0.2224  0.0455  0.9739
    38 H(1)   Bbb    -0.0056    -3.012    -1.075    -1.005  0.7369 -0.6462  0.1985
              Bcc     0.0124     6.593     2.352     2.199  0.6383  0.7618  0.1102
 
              Baa    -0.0038    -0.505    -0.180    -0.169  0.0586  0.5735  0.8171
    39 C(13)  Bbb    -0.0025    -0.331    -0.118    -0.110 -0.0031  0.8186 -0.5743
              Bcc     0.0062     0.836     0.298     0.279  0.9983 -0.0311 -0.0497
 
              Baa    -0.0037    -1.967    -0.702    -0.656 -0.2375  0.3683  0.8989
    40 H(1)   Bbb    -0.0027    -1.442    -0.515    -0.481  0.2214  0.9215 -0.3191
              Bcc     0.0064     3.409     1.217     1.137  0.9458 -0.1232  0.3004
 
              Baa    -0.0317     2.297     0.820     0.766  0.1362  0.9906 -0.0119
    41 O(17)  Bbb    -0.0146     1.054     0.376     0.352  0.9528 -0.1277  0.2753
              Bcc     0.0463    -3.351    -1.196    -1.118 -0.2712  0.0488  0.9613
 
              Baa    -0.0484     3.503     1.250     1.168 -0.1126  0.9107 -0.3975
    42 O(17)  Bbb    -0.0434     3.139     1.120     1.047  0.9620  0.2000  0.1857
              Bcc     0.0918    -6.642    -2.370    -2.216 -0.2487  0.3615  0.8986
 
              Baa    -0.5384    25.714     9.175     8.577  0.8589  0.4516 -0.2414
    43 Ni(61) Bbb     0.1200    -5.733    -2.046    -1.912 -0.4144  0.8900  0.1904
              Bcc     0.4184   -19.981    -7.130    -6.665  0.3008 -0.0635  0.9516
 
              Baa    -0.3656   -19.133    -6.827    -6.382  0.2567  0.9499 -0.1782
    44 Cl(35) Bbb    -0.3334   -17.451    -6.227    -5.821  0.9254 -0.1883  0.3289
              Bcc     0.6990    36.584    13.054    12.203 -0.2789  0.2493  0.9274
 
              Baa    -0.0062    -0.834    -0.298    -0.278 -0.4337  0.8983  0.0698
    45 C(13)  Bbb    -0.0042    -0.561    -0.200    -0.187  0.5131  0.1826  0.8387
              Bcc     0.0104     1.395     0.498     0.465  0.7407  0.3996 -0.5401
 
              Baa    -0.0030    -0.396    -0.141    -0.132  0.4166 -0.1183  0.9014
    46 C(13)  Bbb    -0.0028    -0.378    -0.135    -0.126 -0.1055  0.9785  0.1772
              Bcc     0.0058     0.775     0.276     0.258  0.9029  0.1689 -0.3952
 
              Baa    -0.0040    -2.158    -0.770    -0.720 -0.2043  0.8409 -0.5011
    47 H(1)   Bbb    -0.0038    -2.019    -0.720    -0.673  0.4187  0.5378  0.7318
              Bcc     0.0078     4.177     1.490     1.393  0.8849 -0.0603 -0.4619
 
              Baa    -0.0022    -1.195    -0.426    -0.398  0.1159  0.6318  0.7664
    48 H(1)   Bbb    -0.0021    -1.114    -0.397    -0.372 -0.2197  0.7688 -0.6005
              Bcc     0.0043     2.308     0.824     0.770  0.9687  0.0988 -0.2279
 
              Baa    -0.0019    -0.988    -0.352    -0.329 -0.4199  0.7699 -0.4806
    49 H(1)   Bbb    -0.0018    -0.942    -0.336    -0.314  0.3014  0.6178  0.7263
              Bcc     0.0036     1.929     0.688     0.644  0.8561  0.1601 -0.4914
 
              Baa    -0.0021    -0.284    -0.101    -0.095  0.2247  0.0339  0.9738
    50 C(13)  Bbb    -0.0019    -0.257    -0.092    -0.086 -0.6190  0.7768  0.1158
              Bcc     0.0040     0.541     0.193     0.181  0.7525  0.6289 -0.1956
 
              Baa    -0.0017    -0.932    -0.333    -0.311  0.1646  0.0646  0.9842
    51 H(1)   Bbb    -0.0016    -0.878    -0.313    -0.293  0.7054 -0.7051 -0.0717
              Bcc     0.0034     1.810     0.646     0.604  0.6894  0.7061 -0.1616
 
              Baa    -0.0013    -0.698    -0.249    -0.233 -0.6047  0.7784 -0.1686
    52 H(1)   Bbb    -0.0013    -0.669    -0.239    -0.223  0.1813  0.3407  0.9225
              Bcc     0.0026     1.367     0.488     0.456  0.7755  0.5273 -0.3472
 
              Baa    -0.0015    -0.823    -0.294    -0.274 -0.3422  0.6931  0.6345
    53 H(1)   Bbb    -0.0014    -0.747    -0.267    -0.249  0.3685 -0.5221  0.7691
              Bcc     0.0029     1.570     0.560     0.524  0.8644  0.4970 -0.0767
 
              Baa    -0.0047    -0.625    -0.223    -0.208 -0.5964  0.7949  0.1118
    54 C(13)  Bbb    -0.0039    -0.520    -0.186    -0.173  0.4909  0.2510  0.8343
              Bcc     0.0085     1.145     0.408     0.382  0.6351  0.5524 -0.5399
 
              Baa    -0.0077    -4.083    -1.457    -1.362 -0.4634  0.8782  0.1183
    55 H(1)   Bbb    -0.0062    -3.329    -1.188    -1.111  0.6752  0.2634  0.6890
              Bcc     0.0139     7.413     2.645     2.473 -0.5740 -0.3992  0.7150
 
              Baa    -0.0025    -1.310    -0.467    -0.437 -0.4891  0.8538  0.1782
    56 H(1)   Bbb    -0.0022    -1.170    -0.418    -0.390  0.6270  0.2022  0.7523
              Bcc     0.0046     2.480     0.885     0.827 -0.6063 -0.4797  0.6343
 
              Baa    -0.0040    -2.147    -0.766    -0.716 -0.3922  0.6676  0.6328
    57 H(1)   Bbb    -0.0036    -1.935    -0.690    -0.645  0.7834 -0.1181  0.6102
              Bcc     0.0076     4.081     1.456     1.361  0.4821  0.7351 -0.4767
 
              Baa    -0.0048    -0.649    -0.232    -0.216  0.0788 -0.6004  0.7958
    58 C(13)  Bbb    -0.0026    -0.351    -0.125    -0.117  0.6613  0.6288  0.4090
              Bcc     0.0074     1.000     0.357     0.333  0.7459 -0.4940 -0.4466
 
              Baa    -0.0022    -0.290    -0.104    -0.097  0.4394  0.0173  0.8981
    59 C(13)  Bbb    -0.0019    -0.255    -0.091    -0.085  0.1294  0.9882 -0.0824
              Bcc     0.0041     0.545     0.195     0.182  0.8889 -0.1525 -0.4320
 
              Baa    -0.0030    -1.606    -0.573    -0.536  0.4965 -0.4636  0.7339
    60 H(1)   Bbb    -0.0022    -1.164    -0.415    -0.388  0.3602  0.8793  0.3116
              Bcc     0.0052     2.769     0.988     0.924  0.7897 -0.1097 -0.6035
 
              Baa    -0.0018    -0.949    -0.339    -0.317  0.4361 -0.0973  0.8946
    61 H(1)   Bbb    -0.0015    -0.803    -0.287    -0.268  0.0165  0.9948  0.1001
              Bcc     0.0033     1.752     0.625     0.585  0.8997  0.0289 -0.4355
 
              Baa    -0.0015    -0.776    -0.277    -0.259  0.3377 -0.5449  0.7675
    62 H(1)   Bbb    -0.0012    -0.664    -0.237    -0.221  0.4086  0.8194  0.4020
              Bcc     0.0027     1.440     0.514     0.480  0.8480 -0.1779 -0.4993
 
              Baa    -0.0030    -0.403    -0.144    -0.135  0.1040 -0.2056  0.9731
    63 C(13)  Bbb    -0.0021    -0.276    -0.098    -0.092  0.4495  0.8825  0.1384
              Bcc     0.0051     0.679     0.242     0.227  0.8872 -0.4230 -0.1842
 
              Baa    -0.0027    -1.446    -0.516    -0.482 -0.0148  0.0319  0.9994
    64 H(1)   Bbb    -0.0019    -0.998    -0.356    -0.333  0.4641  0.8855 -0.0214
              Bcc     0.0046     2.444     0.872     0.815  0.8857 -0.4635  0.0279
 
              Baa    -0.0049    -2.627    -0.937    -0.876  0.1604 -0.3368  0.9278
    65 H(1)   Bbb    -0.0027    -1.431    -0.511    -0.477  0.4863  0.8449  0.2227
              Bcc     0.0076     4.058     1.448     1.354  0.8589 -0.4155 -0.2993
 
              Baa    -0.0019    -1.012    -0.361    -0.337  0.1445 -0.2821  0.9484
    66 H(1)   Bbb    -0.0014    -0.752    -0.268    -0.251  0.4951  0.8505  0.1776
              Bcc     0.0033     1.764     0.629     0.588  0.8568 -0.4439 -0.2626
 
              Baa    -0.0016    -0.219    -0.078    -0.073  0.1165  0.5150  0.8492
    67 C(13)  Bbb    -0.0014    -0.185    -0.066    -0.062  0.2369  0.8160 -0.5273
              Bcc     0.0030     0.404     0.144     0.135  0.9645 -0.2626  0.0270
 
              Baa    -0.0012    -0.630    -0.225    -0.210  0.0898  0.6317  0.7700
    68 H(1)   Bbb    -0.0011    -0.572    -0.204    -0.191  0.2361  0.7376 -0.6327
              Bcc     0.0023     1.202     0.429     0.401  0.9676 -0.2385  0.0829
 
              Baa    -0.0010    -0.526    -0.188    -0.176 -0.0011 -0.5390  0.8423
    69 H(1)   Bbb    -0.0009    -0.473    -0.169    -0.158  0.3147  0.7993  0.5119
              Bcc     0.0019     0.999     0.357     0.333  0.9492 -0.2657 -0.1688
 
              Baa    -0.0011    -0.611    -0.218    -0.204  0.0603  0.0411  0.9973
    70 H(1)   Bbb    -0.0010    -0.509    -0.182    -0.170  0.0294  0.9986 -0.0429
              Bcc     0.0021     1.120     0.399     0.373  0.9977 -0.0320 -0.0590
 
              Baa    -0.0105    -1.412    -0.504    -0.471  0.5715  0.1083  0.8134
    71 C(13)  Bbb    -0.0009    -0.119    -0.042    -0.040  0.5795  0.6486 -0.4935
              Bcc     0.0114     1.531     0.546     0.511 -0.5810  0.7534  0.3079
 
              Baa    -0.0135    -1.811    -0.646    -0.604  0.3312  0.8659 -0.3748
    72 C(13)  Bbb    -0.0093    -1.249    -0.446    -0.417  0.9398 -0.3383  0.0490
              Bcc     0.0228     3.060     1.092     1.021  0.0843  0.3684  0.9258
 
              Baa    -0.0101    -1.355    -0.484    -0.452  0.7734  0.5686 -0.2804
    73 C(13)  Bbb    -0.0070    -0.940    -0.335    -0.314 -0.6232  0.7630 -0.1717
              Bcc     0.0171     2.295     0.819     0.766  0.1163  0.3075  0.9444
 
              Baa    -0.0075    -1.006    -0.359    -0.335  0.4764  0.1521  0.8660
    74 C(13)  Bbb     0.0012     0.166     0.059     0.055  0.5154  0.7496 -0.4153
              Bcc     0.0063     0.840     0.300     0.280  0.7123 -0.6442 -0.2787
 
              Baa    -0.0033    -1.739    -0.620    -0.580  0.7112 -0.1924  0.6761
    75 H(1)   Bbb    -0.0022    -1.197    -0.427    -0.399  0.2778  0.9605 -0.0188
              Bcc     0.0055     2.936     1.047     0.979 -0.6457  0.2012  0.7366
 
              Baa    -0.0081    -1.090    -0.389    -0.364  0.4185  0.1065  0.9020
    76 C(13)  Bbb     0.0010     0.140     0.050     0.047  0.7615  0.5001 -0.4123
              Bcc     0.0071     0.949     0.339     0.317 -0.4950  0.8594  0.1282
 
              Baa    -0.0060    -3.207    -1.144    -1.070  0.5798 -0.3946  0.7128
    77 H(1)   Bbb    -0.0025    -1.334    -0.476    -0.445  0.7971  0.4556 -0.3962
              Bcc     0.0085     4.541     1.620     1.515 -0.1685  0.7979  0.5787
 
              Baa    -0.0122    -1.636    -0.584    -0.546  0.6862  0.6105 -0.3954
    78 C(13)  Bbb    -0.0076    -1.021    -0.364    -0.341 -0.6851  0.7251 -0.0694
              Bcc     0.0198     2.657     0.948     0.886  0.2443  0.3186  0.9159
 
              Baa    -0.0016    -0.869    -0.310    -0.290  0.6756  0.1660  0.7183
    79 H(1)   Bbb    -0.0010    -0.529    -0.189    -0.177  0.3210  0.8109 -0.4893
              Bcc     0.0026     1.398     0.499     0.466  0.6637 -0.5612 -0.4946
 
              Baa    -0.0021    -1.105    -0.394    -0.368  0.6678 -0.1161  0.7352
    80 H(1)   Bbb    -0.0017    -0.919    -0.328    -0.307  0.6808  0.4944 -0.5404
              Bcc     0.0038     2.024     0.722     0.675 -0.3008  0.8615  0.4092
 
              Baa    -0.0010    -0.134    -0.048    -0.045  0.3443 -0.1536  0.9262
    81 C(13)  Bbb    -0.0008    -0.111    -0.039    -0.037  0.6577  0.7435 -0.1212
              Bcc     0.0018     0.244     0.087     0.081  0.6700 -0.6509 -0.3570
 
              Baa    -0.0010    -0.523    -0.187    -0.175  0.1266 -0.2911  0.9483
    82 H(1)   Bbb    -0.0009    -0.456    -0.163    -0.152  0.6579  0.7401  0.1393
              Bcc     0.0018     0.979     0.349     0.327  0.7424 -0.6063 -0.2852
 
              Baa    -0.0008    -0.453    -0.162    -0.151  0.6344  0.0322  0.7724
    83 H(1)   Bbb    -0.0007    -0.394    -0.140    -0.131  0.4595  0.7878 -0.4102
              Bcc     0.0016     0.847     0.302     0.282  0.6217 -0.6151 -0.4849
 
              Baa    -0.0007    -0.387    -0.138    -0.129  0.6698  0.6718 -0.3162
    84 H(1)   Bbb    -0.0007    -0.375    -0.134    -0.125  0.4259  0.0012  0.9048
              Bcc     0.0014     0.763     0.272     0.254 -0.6082  0.7407  0.2853
 
              Baa    -0.0120     0.870     0.310     0.290  0.5384  0.7497 -0.3847
    85 O(17)  Bbb    -0.0095     0.685     0.245     0.229  0.7985 -0.5998 -0.0514
              Bcc     0.0215    -1.556    -0.555    -0.519  0.2693  0.2796  0.9216
 
              Baa    -0.0137    -7.299    -2.605    -2.435  0.2273  0.0388  0.9731
    86 H(1)   Bbb    -0.0083    -4.452    -1.589    -1.485  0.9722  0.0486 -0.2290
              Bcc     0.0220    11.751     4.193     3.920 -0.0562  0.9981 -0.0266
 
              Baa    -0.0037    -0.490    -0.175    -0.164 -0.1180  0.9530  0.2789
    87 C(13)  Bbb    -0.0024    -0.325    -0.116    -0.108  0.9180  0.2118 -0.3352
              Bcc     0.0061     0.815     0.291     0.272  0.3785 -0.2165  0.8999
 
              Baa    -0.0023    -0.304    -0.109    -0.102  0.7930 -0.4485 -0.4123
    88 C(13)  Bbb    -0.0019    -0.252    -0.090    -0.084  0.4791  0.8771 -0.0327
              Bcc     0.0041     0.557     0.199     0.186  0.3763 -0.1716  0.9105
 
              Baa    -0.0059    -0.787    -0.281    -0.263 -0.5488  0.7923  0.2665
    89 C(13)  Bbb    -0.0024    -0.323    -0.115    -0.108  0.7991  0.5908 -0.1109
              Bcc     0.0083     1.110     0.396     0.370  0.2454 -0.1521  0.9574
 
              Baa    -0.0014    -0.193    -0.069    -0.064 -0.5789  0.7552  0.3074
    90 C(13)  Bbb    -0.0010    -0.139    -0.050    -0.046  0.7283  0.6484 -0.2215
              Bcc     0.0025     0.332     0.118     0.111  0.3666 -0.0957  0.9254
 
              Baa    -0.0020    -1.076    -0.384    -0.359  0.7857 -0.5149 -0.3429
    91 H(1)   Bbb    -0.0018    -0.966    -0.345    -0.322  0.5865  0.7963  0.1480
              Bcc     0.0038     2.042     0.729     0.681  0.1968 -0.3174  0.9276
 
              Baa    -0.0021    -0.287    -0.102    -0.096 -0.5234  0.8431  0.1236
    92 C(13)  Bbb    -0.0017    -0.233    -0.083    -0.078  0.7075  0.5108 -0.4884
              Bcc     0.0039     0.520     0.186     0.173  0.4749  0.1682  0.8638
 
              Baa    -0.0067    -3.598    -1.284    -1.200 -0.5306  0.8385  0.1237
    93 H(1)   Bbb    -0.0040    -2.114    -0.754    -0.705  0.6795  0.5081 -0.5292
              Bcc     0.0107     5.712     2.038     1.905  0.5067  0.1967  0.8394
 
              Baa    -0.0014    -0.191    -0.068    -0.064 -0.6294  0.7368  0.2472
    94 C(13)  Bbb    -0.0010    -0.133    -0.047    -0.044  0.6793  0.6761 -0.2856
              Bcc     0.0024     0.324     0.115     0.108  0.3775  0.0118  0.9259
 
              Baa    -0.0009    -0.454    -0.162    -0.151 -0.5297  0.7999  0.2819
    95 H(1)   Bbb    -0.0008    -0.419    -0.150    -0.140  0.7983  0.5825 -0.1528
              Bcc     0.0016     0.873     0.312     0.291  0.2864 -0.1441  0.9472
 
              Baa    -0.0015    -0.777    -0.277    -0.259 -0.6310  0.7526  0.1884
    96 H(1)   Bbb    -0.0012    -0.660    -0.235    -0.220 -0.5309 -0.5959  0.6026
              Bcc     0.0027     1.437     0.513     0.479  0.5657  0.2802  0.7755
 
              Baa    -0.0008    -0.413    -0.147    -0.138 -0.5699  0.7962  0.2034
    97 H(1)   Bbb    -0.0007    -0.374    -0.134    -0.125  0.6915  0.5983 -0.4048
              Bcc     0.0015     0.787     0.281     0.263  0.4440  0.0900  0.8915
 

 ---------------------------------------------------------------------------------

 1\1\GINC-M9-32-2\SP\UM06L\Gen\C41H46Cl1N4Ni2O3(4)\MALLA1\24-Aug-2022\0
 \\#m06l/gen pseudo=read integral=ultrafine temperature=308 scrf=(read)
 \\Title Card Required\\0,4\C,0,-2.855608,1.62469,-2.696529\C,0,-1.9557
 2,2.673896,-2.930144\C,0,-0.6247,2.600902,-2.42969\C,0,-0.27668,1.4272
 23,-1.654051\C,0,-2.42171,0.513341,-1.947918\H,0,0.163366,4.490584,-3.
 209024\H,0,-3.879261,1.648833,-3.096578\H,0,-2.263896,3.553066,-3.5168
 9\C,0,0.396104,3.578472,-2.638535\C,0,1.955668,2.165646,-1.441611\C,0,
 1.692158,3.348944,-2.159017\H,0,2.509609,4.057116,-2.358831\N,0,0.9668
 9,1.259608,-1.137542\N,0,-1.163391,0.437994,-1.431838\C,0,-3.189149,-0
 .700625,-1.697288\C,0,3.250184,1.667665,-1.025221\N,0,-2.728503,-1.669
 102,-0.945562\N,0,3.369736,0.437208,-0.561199\Ni,0,1.536575,-0.253312,
 -0.011993\C,0,0.194651,-0.469788,1.363808\C,0,-0.928508,0.108899,1.913
 465\C,0,1.872806,-1.959113,0.959651\H,0,2.958977,-2.086441,1.116899\C,
 0,0.971436,-1.549478,2.126506\H,0,0.326548,-2.385333,2.501015\C,0,1.24
 0182,-2.825605,-0.025876\H,0,1.823588,-3.067909,-0.930717\C,0,-0.04770
 5,-3.353925,0.058561\H,0,-0.61242,-3.338977,1.003399\H,0,-1.358057,-0.
 473452,2.760345\C,0,5.405159,1.612984,-0.437681\H,0,5.56086,2.047265,0
 .572253\H,0,6.338181,1.713591,-1.02267\C,0,-4.711099,-2.294773,-2.0703
 75\H,0,-4.527004,-2.837011,-3.020921\H,0,-5.787035,-2.357203,-1.820443
 \C,0,-3.750443,-2.73944,-0.930061\H,0,-3.259476,-3.701972,-1.189846\C,
 0,4.816623,0.176251,-0.387569\H,0,4.990017,-0.280941,0.61035\O,0,-4.38
 4334,-0.889576,-2.294864\O,0,4.372645,2.406648,-1.10401\Ni,0,-0.634838
 ,-1.378807,-0.679267\Cl,0,-0.055019,-2.034879,-2.935487\C,0,-4.445663,
 -2.929022,0.46564\C,0,-5.206783,-1.653313,0.88319\H,0,-4.52452,-0.7802
 34,0.937197\H,0,-6.03058,-1.402692,0.182662\H,0,-5.661872,-1.788672,1.
 886775\C,0,-5.425156,-4.119629,0.36004\H,0,-4.898682,-5.050486,0.05909
 3\H,0,-5.907742,-4.308013,1.341791\H,0,-6.237806,-3.936069,-0.374067\C
 ,0,-3.378972,-3.256573,1.52998\H,0,-2.649457,-2.427931,1.631882\H,0,-3
 .857473,-3.419613,2.518502\H,0,-2.821066,-4.18064,1.269796\C,0,5.40678
 3,-0.803651,-1.466201\C,0,5.277083,-0.215962,-2.888181\H,0,4.215505,-0
 .03227,-3.153796\H,0,5.836081,0.735431,-3.008536\H,0,5.684775,-0.93078
 7,-3.633038\C,0,4.649888,-2.145335,-1.408384\H,0,4.713824,-2.605911,-0
 .399803\H,0,3.58081,-2.008455,-1.665533\H,0,5.085429,-2.864195,-2.1333
 67\C,0,6.893993,-1.050896,-1.127304\H,0,7.011011,-1.479779,-0.109057\H
 ,0,7.336563,-1.769757,-1.847857\H,0,7.501205,-0.122474,-1.177589\C,0,-
 1.629081,1.374801,1.691723\C,0,-2.971184,1.518663,2.128722\C,0,-0.9924
 49,2.535533,1.171081\C,0,-3.672593,2.728257,2.010065\H,0,-3.481605,0.6
 52102,2.579738\C,0,-1.671372,3.749179,1.056071\H,0,0.066719,2.474883,0
 .883895\C,0,-3.024941,3.85859,1.460769\H,0,-4.714708,2.783501,2.355186
 \H,0,-1.169121,4.646245,0.662532\C,0,-4.954997,5.257842,1.709583\H,0,-
 5.64463,4.589933,1.14681\H,0,-5.084211,5.074295,2.799535\H,0,-5.212154
 ,6.310601,1.488415\O,0,-3.601696,5.082524,1.302261\H,0,-0.399797,-4.03
 977,-0.725512\C,0,1.720748,-0.998062,3.334761\C,0,1.561623,-1.597108,4
 .603354\C,0,2.592472,0.111041,3.226572\C,0,2.249625,-1.108567,5.729662
 \H,0,0.886206,-2.46255,4.709052\C,0,3.280971,0.602179,4.348367\H,0,2.7
 22302,0.595499,2.243245\C,0,3.112998,-0.006371,5.60688\H,0,2.107997,-1
 .593766,6.708969\H,0,3.952118,1.469928,4.241138\H,0,3.651644,0.379398,
 6.487165\\Version=ES64L-G16RevB.01\State=4-A\HF=-2834.2176457\S2=3.793
 268\S2-1=0.\S2A=3.750704\RMSD=4.269e-09\Dipole=-0.5963316,1.6576469,1.
 766526\Quadrupole=35.1007151,-5.9430316,-29.1576835,4.5808133,-2.17035
 6,-13.7553158\PG=C01 [X(C41H46Cl1N4Ni2O3)]\\@


    THE DOUGHNUT CREED
 AS YOU RAMBLE ON THROUGH LIFE, BROTHER
 WHATEVER BE YOUR GOAL
 KEEP YOUR EYE UPON THE DOUGHNUT
 AND NOT UPON THE HOLE.
 Job cpu time:       1 days  7 hours 42 minutes 24.0 seconds.
 Elapsed time:       0 days  2 hours 38 minutes 44.9 seconds.
 File lengths (MBytes):  RWF=   3715 Int=      0 D2E=      0 Chk=    238 Scr=      1
 Normal termination of Gaussian 16 at Wed Aug 24 17:56:04 2022.
