 Entering Gaussian System, Link 0=g16
 Input=Pro_R_E_c1_m06l.com
 Output=Pro_R_E_c1_m06l.log
 Initial command:
 /apps/gaussian16/B.01/AVX2/g16/l1.exe "/tmp/51822064/Gau-13649.inp" -scrdir="/tmp/51822064/"
 Entering Link 1 = /apps/gaussian16/B.01/AVX2/g16/l1.exe PID=     13650.
  
 Copyright (c) 1988-2017, Gaussian, Inc.  All Rights Reserved.
  
 This is part of the Gaussian(R) 16 program.  It is based on
 the Gaussian(R) 09 system (copyright 2009, Gaussian, Inc.),
 the Gaussian(R) 03 system (copyright 2003, Gaussian, Inc.),
 the Gaussian(R) 98 system (copyright 1998, Gaussian, Inc.),
 the Gaussian(R) 94 system (copyright 1995, Gaussian, Inc.),
 the Gaussian 92(TM) system (copyright 1992, Gaussian, Inc.),
 the Gaussian 90(TM) system (copyright 1990, Gaussian, Inc.),
 the Gaussian 88(TM) system (copyright 1988, Gaussian, Inc.),
 the Gaussian 86(TM) system (copyright 1986, Carnegie Mellon
 University), and the Gaussian 82(TM) system (copyright 1983,
 Carnegie Mellon University). Gaussian is a federally registered
 trademark of Gaussian, Inc.
  
 This software contains proprietary and confidential information,
 including trade secrets, belonging to Gaussian, Inc.
  
 This software is provided under written license and may be
 used, copied, transmitted, or stored only in accord with that
 written license.
  
 The following legend is applicable only to US Government
 contracts under FAR:
  
                    RESTRICTED RIGHTS LEGEND
  
 Use, reproduction and disclosure by the US Government is
 subject to restrictions as set forth in subparagraphs (a)
 and (c) of the Commercial Computer Software - Restricted
 Rights clause in FAR 52.227-19.
  
 Gaussian, Inc.
 340 Quinnipiac St., Bldg. 40, Wallingford CT 06492
  
  
 ---------------------------------------------------------------
 Warning -- This program may not be used in any manner that
 competes with the business of Gaussian, Inc. or will provide
 assistance to any competitor of Gaussian, Inc.  The licensee
 of this program is prohibited from giving any competitor of
 Gaussian, Inc. access to this program.  By using this program,
 the user acknowledges that Gaussian, Inc. is engaged in the
 business of creating and licensing software in the field of
 computational chemistry and represents and warrants to the
 licensee that it is not a competitor of Gaussian, Inc. and that
 it will not use this program in any manner prohibited above.
 ---------------------------------------------------------------
  

 Cite this work as:
 Gaussian 16, Revision B.01,
 M. J. Frisch, G. W. Trucks, H. B. Schlegel, G. E. Scuseria, 
 M. A. Robb, J. R. Cheeseman, G. Scalmani, V. Barone, 
 G. A. Petersson, H. Nakatsuji, X. Li, M. Caricato, A. V. Marenich, 
 J. Bloino, B. G. Janesko, R. Gomperts, B. Mennucci, H. P. Hratchian, 
 J. V. Ortiz, A. F. Izmaylov, J. L. Sonnenberg, D. Williams-Young, 
 F. Ding, F. Lipparini, F. Egidi, J. Goings, B. Peng, A. Petrone, 
 T. Henderson, D. Ranasinghe, V. G. Zakrzewski, J. Gao, N. Rega, 
 G. Zheng, W. Liang, M. Hada, M. Ehara, K. Toyota, R. Fukuda, 
 J. Hasegawa, M. Ishida, T. Nakajima, Y. Honda, O. Kitao, H. Nakai, 
 T. Vreven, K. Throssell, J. A. Montgomery, Jr., J. E. Peralta, 
 F. Ogliaro, M. J. Bearpark, J. J. Heyd, E. N. Brothers, K. N. Kudin, 
 V. N. Staroverov, T. A. Keith, R. Kobayashi, J. Normand, 
 K. Raghavachari, A. P. Rendell, J. C. Burant, S. S. Iyengar, 
 J. Tomasi, M. Cossi, J. M. Millam, M. Klene, C. Adamo, R. Cammi, 
 J. W. Ochterski, R. L. Martin, K. Morokuma, O. Farkas, 
 J. B. Foresman, and D. J. Fox, Gaussian, Inc., Wallingford CT, 2016.
 
 ******************************************
 Gaussian 16:  ES64L-G16RevB.01 20-Dec-2017
                24-Aug-2022 
 ******************************************
 %nprocshared=12
 Will use up to   12 processors via shared memory.
 %mem=24GB
 --------------------------------------------------------------------
 #m06l/gen pseudo=read integral=ultrafine temperature=308 scrf=(read)
 --------------------------------------------------------------------
 1/38=1,40=2,112=308000,172=1/1;
 2/12=2,17=6,18=5,40=1/2;
 3/5=7,11=2,16=1,17=8,25=1,30=1,70=2203,74=-53,75=-5/1,2,3;
 4//1;
 5/5=2,38=5/2;
 6/7=2,8=2,9=2,10=2,28=1/1;
 99/5=1,9=1/99;
 -------------------
 Title Card Required
 -------------------
 Symbolic Z-matrix:
 Charge =  0 Multiplicity = 2
 C                    -2.62      2.53911  -2.00613 
 C                    -1.68893   3.58267  -1.8822 
 C                    -0.3649    3.313    -1.44052 
 C                    -0.04767   1.93794  -1.12427 
 C                    -2.23057   1.23675  -1.64517 
 H                     0.4746    5.33955  -1.49078 
 H                    -3.63718   2.72005  -2.38072 
 H                    -1.97172   4.61456  -2.14145 
 C                     0.67926   4.2797   -1.27606 
 C                     2.18943   2.50237  -0.61345 
 C                     1.94552   3.87239  -0.84693 
 H                     2.76094   4.59698  -0.70661 
 N                     1.20086   1.55312  -0.76049 
 N                    -0.98068   0.96771  -1.17813 
 C                    -3.02629   0.02182  -1.80607 
 C                     3.43268   1.87996  -0.23557 
 N                    -2.57882  -1.14446  -1.43072 
 N                     3.51646   0.56027  -0.17047 
 Ni                    1.71681  -0.26598  -0.39282 
 C                    -0.10988  -0.99544   0.93478 
 C                    -0.88355  -0.43076   1.90748 
 C                     2.01039  -2.11242   0.33525 
 H                     3.07083  -2.22066   0.61216 
 C                     0.93297  -2.07383   1.40723 
 H                     0.408    -3.06175   1.41953 
 C                     1.56433  -2.44049  -0.96725 
 H                     2.29452  -2.51079  -1.791 
 C                     0.18411  -2.78812  -1.22259 
 H                    -0.34946  -3.33481  -0.42427 
 H                    -0.70873  -0.85727   2.92013 
 C                     5.46917   1.58978   0.62664 
 H                     5.42952   1.6673    1.7338 
 H                     6.4854    1.85295   0.28026 
 C                    -4.54531  -1.32671  -2.74424 
 H                    -4.40303  -1.4921   -3.83173 
 H                    -5.61368  -1.4713   -2.49405 
 C                    -3.55886  -2.15999  -1.86934 
 H                    -3.01943  -2.90137  -2.49892 
 C                     4.93572   0.22868   0.10589 
 H                     4.98515  -0.53942   0.90733 
 O                    -4.20442   0.06508  -2.46326 
 O                     4.54071   2.57789   0.08031 
 Ni                   -0.46094  -0.92432  -1.06053 
 Cl                   -0.09831  -0.74696  -3.44434 
 C                    -4.23403  -2.9523   -0.69726 
 C                    -5.07948  -2.0154    0.18946 
 H                    -4.46651  -1.18419   0.59308 
 H                    -5.9388   -1.57531  -0.35879 
 H                    -5.49817  -2.57668   1.05116 
 C                    -5.13138  -4.04942  -1.31289 
 H                    -4.54276  -4.74335  -1.95031 
 H                    -5.60907  -4.6506   -0.51115 
 H                    -5.94785  -3.6257   -1.93546 
 C                    -3.13887  -3.61997   0.15951 
 H                    -2.46973  -2.86175   0.61469 
 H                    -3.59777  -4.21656   0.9759 
 H                    -2.51768  -4.30858  -0.45171 
 C                     5.71862  -0.3289   -1.13906 
 C                     5.77257   0.70905  -2.2813 
 H                     4.75406   0.97955  -2.62954 
 H                     6.29842   1.64074  -1.98644 
 H                     6.31779   0.28702  -3.15114 
 C                     5.02709  -1.6038   -1.65894 
 H                     4.95934  -2.38432  -0.87169 
 H                     4.00462  -1.37553  -2.01936 
 H                     5.5988   -2.03332  -2.50775 
 C                     7.1499   -0.69004  -0.68053 
 H                     7.13487  -1.44033   0.13875 
 H                     7.72273  -1.12603  -1.52517 
 H                     7.71868   0.19363  -0.32219 
 C                    -1.92042   0.63047   1.95138 
 C                    -3.20798   0.33626   2.45802 
 C                    -1.63523   1.992     1.67693 
 C                    -4.19456   1.32587   2.6217 
 H                    -3.44849  -0.70208   2.73782 
 C                    -2.59975   2.99223   1.84088 
 H                    -0.61854   2.27194   1.36651 
 C                    -3.89733   2.66855   2.30065 
 H                    -5.18411   1.03971   3.00574 
 H                    -2.36511   4.04678   1.6291 
 C                    -6.08617   3.43956   2.89725 
 H                    -6.6329    2.73544   2.23022 
 H                    -6.07362   3.01955   3.92828 
 H                    -6.61956   4.40874   2.91095 
 O                    -4.7741    3.71015   2.41974 
 H                    -0.06484  -3.10452  -2.24688 
 C                     1.49371  -1.85979   2.80654 
 C                     1.21142  -2.78117   3.83811 
 C                     2.31596  -0.74913   3.10823 
 C                     1.73321  -2.60334   5.13359 
 H                     0.57259  -3.65393   3.62167 
 C                     2.84075  -0.56959   4.39859 
 H                     2.53723  -0.01661   2.31368 
 C                     2.55064  -1.49652   5.41847 
 H                     1.4987   -3.3359    5.92268 
 H                     3.47876   0.30317   4.61308 
 H                     2.95991  -1.35389   6.43137 
 
 Stoichiometry    C41H46ClN4Ni2O3(2)
 Framework group  C1[X(C41H46ClN4Ni2O3)]
 Deg. of freedom   285
 Full point group                 C1      NOp   1
 Largest Abelian subgroup         C1      NOp   1
 Largest concise Abelian subgroup C1      NOp   1
                         Standard orientation:                         
 ---------------------------------------------------------------------
 Center     Atomic      Atomic             Coordinates (Angstroms)
 Number     Number       Type             X           Y           Z
 ---------------------------------------------------------------------
      1          6           0       -2.619996    2.539114   -2.006126
      2          6           0       -1.688927    3.582670   -1.882197
      3          6           0       -0.364902    3.313001   -1.440518
      4          6           0       -0.047667    1.937941   -1.124271
      5          6           0       -2.230567    1.236751   -1.645169
      6          1           0        0.474602    5.339547   -1.490777
      7          1           0       -3.637181    2.720050   -2.380720
      8          1           0       -1.971715    4.614560   -2.141454
      9          6           0        0.679262    4.279697   -1.276056
     10          6           0        2.189429    2.502372   -0.613445
     11          6           0        1.945519    3.872394   -0.846932
     12          1           0        2.760942    4.596978   -0.706613
     13          7           0        1.200862    1.553116   -0.760485
     14          7           0       -0.980679    0.967710   -1.178134
     15          6           0       -3.026292    0.021816   -1.806074
     16          6           0        3.432683    1.879958   -0.235570
     17          7           0       -2.578822   -1.144462   -1.430718
     18          7           0        3.516462    0.560266   -0.170466
     19         28           0        1.716813   -0.265976   -0.392816
     20          6           0       -0.109880   -0.995441    0.934775
     21          6           0       -0.883549   -0.430756    1.907482
     22          6           0        2.010395   -2.112416    0.335251
     23          1           0        3.070831   -2.220656    0.612155
     24          6           0        0.932974   -2.073827    1.407232
     25          1           0        0.408004   -3.061752    1.419528
     26          6           0        1.564327   -2.440492   -0.967252
     27          1           0        2.294522   -2.510791   -1.790998
     28          6           0        0.184105   -2.788115   -1.222592
     29          1           0       -0.349456   -3.334805   -0.424273
     30          1           0       -0.708727   -0.857270    2.920130
     31          6           0        5.469168    1.589783    0.626641
     32          1           0        5.429525    1.667302    1.733798
     33          1           0        6.485401    1.852946    0.280264
     34          6           0       -4.545307   -1.326710   -2.744241
     35          1           0       -4.403031   -1.492101   -3.831725
     36          1           0       -5.613682   -1.471295   -2.494045
     37          6           0       -3.558862   -2.159986   -1.869339
     38          1           0       -3.019431   -2.901371   -2.498917
     39          6           0        4.935720    0.228679    0.105886
     40          1           0        4.985152   -0.539419    0.907333
     41          8           0       -4.204415    0.065084   -2.463255
     42          8           0        4.540707    2.577887    0.080314
     43         28           0       -0.460940   -0.924322   -1.060526
     44         17           0       -0.098313   -0.746964   -3.444342
     45          6           0       -4.234029   -2.952302   -0.697255
     46          6           0       -5.079475   -2.015396    0.189457
     47          1           0       -4.466508   -1.184194    0.593079
     48          1           0       -5.938799   -1.575312   -0.358790
     49          1           0       -5.498166   -2.576678    1.051162
     50          6           0       -5.131384   -4.049417   -1.312887
     51          1           0       -4.542761   -4.743350   -1.950309
     52          1           0       -5.609067   -4.650595   -0.511154
     53          1           0       -5.947850   -3.625698   -1.935458
     54          6           0       -3.138868   -3.619971    0.159509
     55          1           0       -2.469733   -2.861751    0.614689
     56          1           0       -3.597767   -4.216558    0.975898
     57          1           0       -2.517682   -4.308576   -0.451713
     58          6           0        5.718615   -0.328903   -1.139065
     59          6           0        5.772570    0.709051   -2.281303
     60          1           0        4.754064    0.979550   -2.629538
     61          1           0        6.298418    1.640735   -1.986440
     62          1           0        6.317788    0.287019   -3.151139
     63          6           0        5.027089   -1.603801   -1.658939
     64          1           0        4.959341   -2.384323   -0.871685
     65          1           0        4.004617   -1.375527   -2.019362
     66          1           0        5.598796   -2.033324   -2.507749
     67          6           0        7.149901   -0.690040   -0.680530
     68          1           0        7.134866   -1.440330    0.138754
     69          1           0        7.722725   -1.126025   -1.525172
     70          1           0        7.718677    0.193630   -0.322186
     71          6           0       -1.920421    0.630465    1.951375
     72          6           0       -3.207978    0.336255    2.458024
     73          6           0       -1.635230    1.991999    1.676929
     74          6           0       -4.194556    1.325874    2.621704
     75          1           0       -3.448488   -0.702076    2.737816
     76          6           0       -2.599751    2.992232    1.840875
     77          1           0       -0.618539    2.271935    1.366507
     78          6           0       -3.897332    2.668550    2.300645
     79          1           0       -5.184109    1.039714    3.005735
     80          1           0       -2.365108    4.046784    1.629095
     81          6           0       -6.086172    3.439563    2.897252
     82          1           0       -6.632897    2.735436    2.230223
     83          1           0       -6.073620    3.019551    3.928275
     84          1           0       -6.619560    4.408738    2.910949
     85          8           0       -4.774101    3.710152    2.419736
     86          1           0       -0.064839   -3.104524   -2.246875
     87          6           0        1.493709   -1.859787    2.806543
     88          6           0        1.211416   -2.781168    3.838112
     89          6           0        2.315962   -0.749129    3.108226
     90          6           0        1.733208   -2.603337    5.133592
     91          1           0        0.572591   -3.653927    3.621671
     92          6           0        2.840752   -0.569594    4.398589
     93          1           0        2.537229   -0.016607    2.313677
     94          6           0        2.550639   -1.496524    5.418474
     95          1           0        1.498701   -3.335900    5.922680
     96          1           0        3.478755    0.303171    4.613082
     97          1           0        2.959914   -1.353894    6.431372
 ---------------------------------------------------------------------
 Rotational constants (GHZ):           0.0749533           0.0437133           0.0436304
 General basis read from cards:  (5D, 7F)
 ======================================================================================================
                                       Pseudopotential Parameters
 ======================================================================================================
  Center     Atomic      Valence      Angular      Power
  Number     Number     Electrons     Momentum     of R      Exponent        Coefficient   SO-Coeffient
 ======================================================================================================
    1          6
                                   No pseudopotential on this center.
    2          6
                                   No pseudopotential on this center.
    3          6
                                   No pseudopotential on this center.
    4          6
                                   No pseudopotential on this center.
    5          6
                                   No pseudopotential on this center.
    6          1
                                   No pseudopotential on this center.
    7          1
                                   No pseudopotential on this center.
    8          1
                                   No pseudopotential on this center.
    9          6
                                   No pseudopotential on this center.
   10          6
                                   No pseudopotential on this center.
   11          6
                                   No pseudopotential on this center.
   12          1
                                   No pseudopotential on this center.
   13          7
                                   No pseudopotential on this center.
   14          7
                                   No pseudopotential on this center.
   15          6
                                   No pseudopotential on this center.
   16          6
                                   No pseudopotential on this center.
   17          7
                                   No pseudopotential on this center.
   18          7
                                   No pseudopotential on this center.
   19         28           18
                                      D and up 
                                                     1      469.9324331      -10.00000000    0.00000000
                                                     2       85.4236411      -69.40848050    0.00000000
                                                     2       21.2674984      -12.09510200    0.00000000
                                      S - D
                                                     0      162.1686097        3.00000000    0.00000000
                                                     1      176.5333232       22.02536180    0.00000000
                                                     2       68.9562010      443.01810880    0.00000000
                                                     2       13.5792838      145.56964110    0.00000000
                                      P - D
                                                     0       69.0181506        5.00000000    0.00000000
                                                     1      275.5955596        4.98828240    0.00000000
                                                     2       47.1315453      256.69458530    0.00000000
                                                     2       12.9874075       78.47544500    0.00000000
   20          6
                                   No pseudopotential on this center.
   21          6
                                   No pseudopotential on this center.
   22          6
                                   No pseudopotential on this center.
   23          1
                                   No pseudopotential on this center.
   24          6
                                   No pseudopotential on this center.
   25          1
                                   No pseudopotential on this center.
   26          6
                                   No pseudopotential on this center.
   27          1
                                   No pseudopotential on this center.
   28          6
                                   No pseudopotential on this center.
   29          1
                                   No pseudopotential on this center.
   30          1
                                   No pseudopotential on this center.
   31          6
                                   No pseudopotential on this center.
   32          1
                                   No pseudopotential on this center.
   33          1
                                   No pseudopotential on this center.
   34          6
                                   No pseudopotential on this center.
   35          1
                                   No pseudopotential on this center.
   36          1
                                   No pseudopotential on this center.
   37          6
                                   No pseudopotential on this center.
   38          1
                                   No pseudopotential on this center.
   39          6
                                   No pseudopotential on this center.
   40          1
                                   No pseudopotential on this center.
   41          8
                                   No pseudopotential on this center.
   42          8
                                   No pseudopotential on this center.
   43         28           18
                                      D and up 
                                                     1      469.9324331      -10.00000000    0.00000000
                                                     2       85.4236411      -69.40848050    0.00000000
                                                     2       21.2674984      -12.09510200    0.00000000
                                      S - D
                                                     0      162.1686097        3.00000000    0.00000000
                                                     1      176.5333232       22.02536180    0.00000000
                                                     2       68.9562010      443.01810880    0.00000000
                                                     2       13.5792838      145.56964110    0.00000000
                                      P - D
                                                     0       69.0181506        5.00000000    0.00000000
                                                     1      275.5955596        4.98828240    0.00000000
                                                     2       47.1315453      256.69458530    0.00000000
                                                     2       12.9874075       78.47544500    0.00000000
   44         17
                                   No pseudopotential on this center.
   45          6
                                   No pseudopotential on this center.
   46          6
                                   No pseudopotential on this center.
   47          1
                                   No pseudopotential on this center.
   48          1
                                   No pseudopotential on this center.
   49          1
                                   No pseudopotential on this center.
   50          6
                                   No pseudopotential on this center.
   51          1
                                   No pseudopotential on this center.
   52          1
                                   No pseudopotential on this center.
   53          1
                                   No pseudopotential on this center.
   54          6
                                   No pseudopotential on this center.
   55          1
                                   No pseudopotential on this center.
   56          1
                                   No pseudopotential on this center.
   57          1
                                   No pseudopotential on this center.
   58          6
                                   No pseudopotential on this center.
   59          6
                                   No pseudopotential on this center.
   60          1
                                   No pseudopotential on this center.
   61          1
                                   No pseudopotential on this center.
   62          1
                                   No pseudopotential on this center.
   63          6
                                   No pseudopotential on this center.
   64          1
                                   No pseudopotential on this center.
   65          1
                                   No pseudopotential on this center.
   66          1
                                   No pseudopotential on this center.
   67          6
                                   No pseudopotential on this center.
   68          1
                                   No pseudopotential on this center.
   69          1
                                   No pseudopotential on this center.
   70          1
                                   No pseudopotential on this center.
   71          6
                                   No pseudopotential on this center.
   72          6
                                   No pseudopotential on this center.
   73          6
                                   No pseudopotential on this center.
   74          6
                                   No pseudopotential on this center.
   75          1
                                   No pseudopotential on this center.
   76          6
                                   No pseudopotential on this center.
   77          1
                                   No pseudopotential on this center.
   78          6
                                   No pseudopotential on this center.
   79          1
                                   No pseudopotential on this center.
   80          1
                                   No pseudopotential on this center.
   81          6
                                   No pseudopotential on this center.
   82          1
                                   No pseudopotential on this center.
   83          1
                                   No pseudopotential on this center.
   84          1
                                   No pseudopotential on this center.
   85          8
                                   No pseudopotential on this center.
   86          1
                                   No pseudopotential on this center.
   87          6
                                   No pseudopotential on this center.
   88          6
                                   No pseudopotential on this center.
   89          6
                                   No pseudopotential on this center.
   90          6
                                   No pseudopotential on this center.
   91          1
                                   No pseudopotential on this center.
   92          6
                                   No pseudopotential on this center.
   93          1
                                   No pseudopotential on this center.
   94          6
                                   No pseudopotential on this center.
   95          1
                                   No pseudopotential on this center.
   96          1
                                   No pseudopotential on this center.
   97          1
                                   No pseudopotential on this center.
 ======================================================================================================
 There are  2094 symmetry adapted cartesian basis functions of A   symmetry.
 There are  1845 symmetry adapted basis functions of A   symmetry.
  1845 basis functions,  2989 primitive gaussians,  2094 cartesian basis functions
   199 alpha electrons      198 beta electrons
       nuclear repulsion energy      8617.1052096644 Hartrees.
 NAtoms=   97 NActive=   97 NUniq=   97 SFac= 1.00D+00 NAtFMM=   60 NAOKFM=T Big=T
 Integral buffers will be    131072 words long.
 Raffenetti 2 integral format.
 Two-electron integral symmetry is turned on.
 Using the following non-standard input for PCM:
 Eps=4.5
 --- end of non-standard input.
 ------------------------------------------------------------------------------
 Polarizable Continuum Model (PCM)
 =================================
 Model                : PCM.
 Atomic radii         : UFF (Universal Force Field).
 Polarization charges : Total charges.
 Charge compensation  : None.
 Solution method      : On-the-fly selection.
 Cavity type          : Scaled VdW (van der Waals Surface) (Alpha=1.100).
 Cavity algorithm     : GePol (No added spheres)
                        Default sphere list used, NSphG=   97.
                        Lebedev-Laikov grids with approx.  5.0 points / Ang**2.
                        Smoothing algorithm: York/Karplus (Gamma=1.0000).
                        Polarization charges: spherical gaussians, with
                                              point-specific exponents (IZeta= 3).
                        Self-potential: point-specific (ISelfS= 7).
                        Self-field    : sphere-specific E.n sum rule (ISelfD= 2).
 Solvent              : Water, Eps=   4.500000 Eps(inf)=   1.777849
 ------------------------------------------------------------------------------
 One-electron integrals computed using PRISM.
   1 Symmetry operations used in ECPInt.
 ECPInt:  NShTT=  274911 NPrTT=  843013 LenC2=  207087 LenP2D=  416318.
 LDataN:  DoStor=T MaxTD1= 6 Len=  172
 NBasis=  1845 RedAO= T EigKep=  5.74D-06  NBF=  1845
 NBsUse=  1845 1.00D-06 EigRej= -1.00D+00 NBFU=  1845
 ExpMin= 2.40D-02 ExpMax= 6.95D+04 ExpMxC= 2.37D+03 IAcc=3 IRadAn=         5 AccDes= 0.00D+00
 Harris functional with IExCor= 1009 and IRadAn=       5 diagonalized for initial guess.
 HarFok:  IExCor= 1009 AccDes= 0.00D+00 IRadAn=         5 IDoV= 1 UseB2=F ITyADJ=14
 ICtDFT=  3500011 ScaDFX=  1.000000  1.000000  1.000000  1.000000
 FoFCou: FMM=F IPFlag=           0 FMFlag=      100000 FMFlg1=        2001
         NFxFlg=           0 DoJE=T BraDBF=F KetDBF=T FulRan=T
         wScrn=  0.000000 ICntrl=       500 IOpCl=  0 I1Cent=   200000004 NGrid=           0
         NMat0=    1 NMatS0=      1 NMatT0=    0 NMatD0=    1 NMtDS0=    0 NMtDT0=    0
 Petite list used in FoFCou.
 Initial guess <Sx>= 0.0000 <Sy>= 0.0000 <Sz>= 0.5000 <S**2>= 0.7500 S= 0.5000
 Requested convergence on RMS density matrix=1.00D-08 within 128 cycles.
 Requested convergence on MAX density matrix=1.00D-06.
 Requested convergence on             energy=1.00D-06.
 No special actions if energy rises.
 Inv3:  Mode=1 IEnd=   102071667.
 Iteration    1 A*A^-1 deviation from unit magnitude is 3.55D-15 for   1866.
 Iteration    1 A*A^-1 deviation from orthogonality  is 3.33D-15 for   4394   2272.
 Iteration    1 A^-1*A deviation from unit magnitude is 3.55D-15 for    614.
 Iteration    1 A^-1*A deviation from orthogonality  is 2.58D-15 for   5253   4205.
 EnCoef did   100 forward-backward iterations
 EnCoef did   100 forward-backward iterations
 EnCoef did    15 forward-backward iterations
 EnCoef did     4 forward-backward iterations
 EnCoef did    14 forward-backward iterations
 EnCoef did     6 forward-backward iterations
 EnCoef did   100 forward-backward iterations
 EnCoef did     2 forward-backward iterations
 Restarting incremental Fock formation.
 Restarting incremental Fock formation.
 Error on total polarization charges =  0.01669
 SCF Done:  E(UM06L) =  -2834.21384991     A.U. after   53 cycles
            NFock= 53  Conv=0.45D-08     -V/T= 2.0519
 <Sx>= 0.0000 <Sy>= 0.0000 <Sz>= 0.5000 <S**2>= 0.7612 S= 0.5056
 <L.S>=  0.00000000000    
 Annihilation of the first spin contaminant:
 S**2 before annihilation     0.7612,   after     0.7501

 **********************************************************************

            Population analysis using the SCF Density.

 **********************************************************************

 Orbital symmetries:
 Alpha Orbitals:
       Occupied  (A) (A) (A) (A) (A) (A) (A) (A) (A) (A) (A) (A)
                 (A) (A) (A) (A) (A) (A) (A) (A) (A) (A) (A) (A)
                 (A) (A) (A) (A) (A) (A) (A) (A) (A) (A) (A) (A)
                 (A) (A) (A) (A) (A) (A) (A) (A) (A) (A) (A) (A)
                 (A) (A) (A) (A) (A) (A) (A) (A) (A) (A) (A) (A)
                 (A) (A) (A) (A) (A) (A) (A) (A) (A) (A) (A) (A)
                 (A) (A) (A) (A) (A) (A) (A) (A) (A) (A) (A) (A)
                 (A) (A) (A) (A) (A) (A) (A) (A) (A) (A) (A) (A)
                 (A) (A) (A) (A) (A) (A) (A) (A) (A) (A) (A) (A)
                 (A) (A) (A) (A) (A) (A) (A) (A) (A) (A) (A) (A)
                 (A) (A) (A) (A) (A) (A) (A) (A) (A) (A) (A) (A)
                 (A) (A) (A) (A) (A) (A) (A) (A) (A) (A) (A) (A)
                 (A) (A) (A) (A) (A) (A) (A) (A) (A) (A) (A) (A)
                 (A) (A) (A) (A) (A) (A) (A) (A) (A) (A) (A) (A)
                 (A) (A) (A) (A) (A) (A) (A) (A) (A) (A) (A) (A)
                 (A) (A) (A) (A) (A) (A) (A) (A) (A) (A) (A) (A)
                 (A) (A) (A) (A) (A) (A) (A)
       Virtual   (A) (A) (A) (A) (A) (A) (A) (A) (A) (A) (A) (A)
                 (A) (A) (A) (A) (A) (A) (A) (A) (A) (A) (A) (A)
                 (A) (A) (A) (A) (A) (A) (A) (A) (A) (A) (A) (A)
                 (A) (A) (A) (A) (A) (A) (A) (A) (A) (A) (A) (A)
                 (A) (A) (A) (A) (A) (A) (A) (A) (A) (A) (A) (A)
                 (A) (A) (A) (A) (A) (A) (A) (A) (A) (A) (A) (A)
                 (A) (A) (A) (A) (A) (A) (A) (A) (A) (A) (A) (A)
                 (A) (A) (A) (A) (A) (A) (A) (A) (A) (A) (A) (A)
                 (A) (A) (A) (A) (A) (A) (A) (A) (A) (A) (A) (A)
                 (A) (A) (A) (A) (A) (A) (A) (A) (A) (A) (A) (A)
                 (A) (A) (A) (A) (A) (A) (A) (A) (A) (A) (A) (A)
                 (A) (A) (A) (A) (A) (A) (A) (A) (A) (A) (A) (A)
                 (A) (A) (A) (A) (A) (A) (A) (A) (A) (A) (A) (A)
                 (A) (A) (A) (A) (A) (A) (A) (A) (A) (A) (A) (A)
                 (A) (A) (A) (A) (A) (A) (A) (A) (A) (A) (A) (A)
                 (A) (A) (A) (A) (A) (A) (A) (A) (A) (A) (A) (A)
                 (A) (A) (A) (A) (A) (A) (A) (A) (A) (A) (A) (A)
                 (A) (A) (A) (A) (A) (A) (A) (A) (A) (A) (A) (A)
                 (A) (A) (A) (A) (A) (A) (A) (A) (A) (A) (A) (A)
                 (A) (A) (A) (A) (A) (A) (A) (A) (A) (A) (A) (A)
                 (A) (A) (A) (A) (A) (A) (A) (A) (A) (A) (A) (A)
                 (A) (A) (A) (A) (A) (A) (A) (A) (A) (A) (A) (A)
                 (A) (A) (A) (A) (A) (A) (A) (A) (A) (A) (A) (A)
                 (A) (A) (A) (A) (A) (A) (A) (A) (A) (A) (A) (A)
                 (A) (A) (A) (A) (A) (A) (A) (A) (A) (A) (A) (A)
                 (A) (A) (A) (A) (A) (A) (A) (A) (A) (A) (A) (A)
                 (A) (A) (A) (A) (A) (A) (A) (A) (A) (A) (A) (A)
                 (A) (A) (A) (A) (A) (A) (A) (A) (A) (A) (A) (A)
                 (A) (A) (A) (A) (A) (A) (A) (A) (A) (A) (A) (A)
                 (A) (A) (A) (A) (A) (A) (A) (A) (A) (A) (A) (A)
                 (A) (A) (A) (A) (A) (A) (A) (A) (A) (A) (A) (A)
                 (A) (A) (A) (A) (A) (A) (A) (A) (A) (A) (A) (A)
                 (A) (A) (A) (A) (A) (A) (A) (A) (A) (A) (A) (A)
                 (A) (A) (A) (A) (A) (A) (A) (A) (A) (A) (A) (A)
                 (A) (A) (A) (A) (A) (A) (A) (A) (A) (A) (A) (A)
                 (A) (A) (A) (A) (A) (A) (A) (A) (A) (A) (A) (A)
                 (A) (A) (A) (A) (A) (A) (A) (A) (A) (A) (A) (A)
                 (A) (A) (A) (A) (A) (A) (A) (A) (A) (A) (A) (A)
                 (A) (A) (A) (A) (A) (A) (A) (A) (A) (A) (A) (A)
                 (A) (A) (A) (A) (A) (A) (A) (A) (A) (A) (A) (A)
                 (A) (A) (A) (A) (A) (A) (A) (A) (A) (A) (A) (A)
                 (A) (A) (A) (A) (A) (A) (A) (A) (A) (A) (A) (A)
                 (A) (A) (A) (A) (A) (A) (A) (A) (A) (A) (A) (A)
                 (A) (A) (A) (A) (A) (A) (A) (A) (A) (A) (A) (A)
                 (A) (A) (A) (A) (A) (A) (A) (A) (A) (A) (A) (A)
                 (A) (A) (A) (A) (A) (A) (A) (A) (A) (A) (A) (A)
                 (A) (A) (A) (A) (A) (A) (A) (A) (A) (A) (A) (A)
                 (A) (A) (A) (A) (A) (A) (A) (A) (A) (A) (A) (A)
                 (A) (A) (A) (A) (A) (A) (A) (A) (A) (A) (A) (A)
                 (A) (A) (A) (A) (A) (A) (A) (A) (A) (A) (A) (A)
                 (A) (A) (A) (A) (A) (A) (A) (A) (A) (A) (A) (A)
                 (A) (A) (A) (A) (A) (A) (A) (A) (A) (A) (A) (A)
                 (A) (A) (A) (A) (A) (A) (A) (A) (A) (A) (A) (A)
                 (A) (A) (A) (A) (A) (A) (A) (A) (A) (A) (A) (A)
                 (A) (A) (A) (A) (A) (A) (A) (A) (A) (A) (A) (A)
                 (A) (A) (A) (A) (A) (A) (A) (A) (A) (A) (A) (A)
                 (A) (A) (A) (A) (A) (A) (A) (A) (A) (A) (A) (A)
                 (A) (A) (A) (A) (A) (A) (A) (A) (A) (A) (A) (A)
                 (A) (A) (A) (A) (A) (A) (A) (A) (A) (A) (A) (A)
                 (A) (A) (A) (A) (A) (A) (A) (A) (A) (A) (A) (A)
                 (A) (A) (A) (A) (A) (A) (A) (A) (A) (A) (A) (A)
                 (A) (A) (A) (A) (A) (A) (A) (A) (A) (A) (A) (A)
                 (A) (A) (A) (A) (A) (A) (A) (A) (A) (A) (A) (A)
                 (A) (A) (A) (A) (A) (A) (A) (A) (A) (A) (A) (A)
                 (A) (A) (A) (A) (A) (A) (A) (A) (A) (A) (A) (A)
                 (A) (A) (A) (A) (A) (A) (A) (A) (A) (A) (A) (A)
                 (A) (A) (A) (A) (A) (A) (A) (A) (A) (A) (A) (A)
                 (A) (A) (A) (A) (A) (A) (A) (A) (A) (A) (A) (A)
                 (A) (A) (A) (A) (A) (A) (A) (A) (A) (A) (A) (A)
                 (A) (A) (A) (A) (A) (A) (A) (A) (A) (A) (A) (A)
                 (A) (A) (A) (A) (A) (A) (A) (A) (A) (A) (A) (A)
                 (A) (A) (A) (A) (A) (A) (A) (A) (A) (A) (A) (A)
                 (A) (A) (A) (A) (A) (A) (A) (A) (A) (A) (A) (A)
                 (A) (A) (A) (A) (A) (A) (A) (A) (A) (A) (A) (A)
                 (A) (A) (A) (A) (A) (A) (A) (A) (A) (A) (A) (A)
                 (A) (A) (A) (A) (A) (A) (A) (A) (A) (A) (A) (A)
                 (A) (A) (A) (A) (A) (A) (A) (A) (A) (A) (A) (A)
                 (A) (A) (A) (A) (A) (A) (A) (A) (A) (A) (A) (A)
                 (A) (A) (A) (A) (A) (A) (A) (A) (A) (A) (A) (A)
                 (A) (A) (A) (A) (A) (A) (A) (A) (A) (A) (A) (A)
                 (A) (A) (A) (A) (A) (A) (A) (A) (A) (A) (A) (A)
                 (A) (A) (A) (A) (A) (A) (A) (A) (A) (A) (A) (A)
                 (A) (A) (A) (A) (A) (A) (A) (A) (A) (A) (A) (A)
                 (A) (A) (A) (A) (A) (A) (A) (A) (A) (A) (A) (A)
                 (A) (A) (A) (A) (A) (A) (A) (A) (A) (A) (A) (A)
                 (A) (A) (A) (A) (A) (A) (A) (A) (A) (A) (A) (A)
                 (A) (A) (A) (A) (A) (A) (A) (A) (A) (A) (A) (A)
                 (A) (A) (A) (A) (A) (A) (A) (A) (A) (A) (A) (A)
                 (A) (A) (A) (A) (A) (A) (A) (A) (A) (A) (A) (A)
                 (A) (A) (A) (A) (A) (A) (A) (A) (A) (A) (A) (A)
                 (A) (A) (A) (A) (A) (A) (A) (A) (A) (A) (A) (A)
                 (A) (A) (A) (A) (A) (A) (A) (A) (A) (A) (A) (A)
                 (A) (A) (A) (A) (A) (A) (A) (A) (A) (A) (A) (A)
                 (A) (A) (A) (A) (A) (A) (A) (A) (A) (A) (A) (A)
                 (A) (A) (A) (A) (A) (A) (A) (A) (A) (A) (A) (A)
                 (A) (A) (A) (A) (A) (A) (A) (A) (A) (A) (A) (A)
                 (A) (A) (A) (A) (A) (A) (A) (A) (A) (A) (A) (A)
                 (A) (A) (A) (A) (A) (A) (A) (A) (A) (A) (A) (A)
                 (A) (A) (A) (A) (A) (A) (A) (A) (A) (A) (A) (A)
                 (A) (A) (A) (A) (A) (A) (A) (A) (A) (A) (A) (A)
                 (A) (A) (A) (A) (A) (A) (A) (A) (A) (A) (A) (A)
                 (A) (A) (A) (A) (A) (A) (A) (A) (A) (A) (A) (A)
                 (A) (A) (A) (A) (A) (A) (A) (A) (A) (A) (A) (A)
                 (A) (A) (A) (A) (A) (A) (A) (A) (A) (A) (A) (A)
                 (A) (A) (A) (A) (A) (A) (A) (A) (A) (A) (A) (A)
                 (A) (A) (A) (A) (A) (A) (A) (A) (A) (A) (A) (A)
                 (A) (A) (A) (A) (A) (A) (A) (A) (A) (A) (A) (A)
                 (A) (A) (A) (A) (A) (A) (A) (A) (A) (A) (A) (A)
                 (A) (A) (A) (A) (A) (A) (A) (A) (A) (A) (A) (A)
                 (A) (A) (A) (A) (A) (A) (A) (A) (A) (A) (A) (A)
                 (A) (A) (A) (A) (A) (A) (A) (A) (A) (A) (A) (A)
                 (A) (A) (A) (A) (A) (A) (A) (A) (A) (A) (A) (A)
                 (A) (A) (A) (A) (A) (A) (A) (A) (A) (A) (A) (A)
                 (A) (A) (A) (A) (A) (A) (A) (A) (A) (A) (A) (A)
                 (A) (A) (A) (A) (A) (A) (A) (A) (A) (A) (A) (A)
                 (A) (A) (A) (A) (A) (A) (A) (A) (A) (A) (A) (A)
                 (A) (A) (A) (A) (A) (A) (A) (A) (A) (A) (A) (A)
                 (A) (A) (A) (A) (A) (A) (A) (A) (A) (A) (A) (A)
                 (A) (A) (A) (A) (A) (A) (A) (A) (A) (A) (A) (A)
                 (A) (A) (A) (A) (A) (A) (A) (A) (A) (A) (A) (A)
                 (A) (A) (A) (A) (A) (A) (A) (A) (A) (A) (A) (A)
                 (A) (A) (A) (A) (A) (A) (A) (A) (A) (A) (A) (A)
                 (A) (A) (A) (A) (A) (A) (A) (A) (A) (A) (A) (A)
                 (A) (A) (A) (A) (A) (A) (A) (A) (A) (A) (A) (A)
                 (A) (A) (A) (A) (A) (A) (A) (A) (A) (A) (A) (A)
                 (A) (A) (A) (A) (A) (A) (A) (A) (A) (A) (A) (A)
                 (A) (A) (A) (A) (A) (A) (A) (A) (A) (A) (A) (A)
                 (A) (A) (A) (A) (A) (A) (A) (A) (A) (A) (A) (A)
                 (A) (A) (A) (A) (A) (A) (A) (A) (A) (A) (A) (A)
                 (A) (A) (A) (A) (A) (A) (A) (A) (A) (A) (A) (A)
                 (A) (A) (A) (A) (A) (A) (A) (A) (A) (A) (A) (A)
                 (A) (A) (A) (A) (A) (A) (A) (A) (A) (A) (A) (A)
                 (A) (A) (A) (A) (A) (A) (A) (A) (A) (A) (A) (A)
                 (A) (A) (A) (A) (A) (A) (A) (A) (A) (A) (A) (A)
                 (A) (A) (A) (A) (A) (A) (A) (A) (A) (A) (A) (A)
                 (A) (A) (A) (A) (A) (A) (A) (A) (A) (A) (A) (A)
                 (A) (A) (A) (A) (A) (A) (A) (A) (A) (A) (A) (A)
                 (A) (A)
 Beta  Orbitals:
       Occupied  (A) (A) (A) (A) (A) (A) (A) (A) (A) (A) (A) (A)
                 (A) (A) (A) (A) (A) (A) (A) (A) (A) (A) (A) (A)
                 (A) (A) (A) (A) (A) (A) (A) (A) (A) (A) (A) (A)
                 (A) (A) (A) (A) (A) (A) (A) (A) (A) (A) (A) (A)
                 (A) (A) (A) (A) (A) (A) (A) (A) (A) (A) (A) (A)
                 (A) (A) (A) (A) (A) (A) (A) (A) (A) (A) (A) (A)
                 (A) (A) (A) (A) (A) (A) (A) (A) (A) (A) (A) (A)
                 (A) (A) (A) (A) (A) (A) (A) (A) (A) (A) (A) (A)
                 (A) (A) (A) (A) (A) (A) (A) (A) (A) (A) (A) (A)
                 (A) (A) (A) (A) (A) (A) (A) (A) (A) (A) (A) (A)
                 (A) (A) (A) (A) (A) (A) (A) (A) (A) (A) (A) (A)
                 (A) (A) (A) (A) (A) (A) (A) (A) (A) (A) (A) (A)
                 (A) (A) (A) (A) (A) (A) (A) (A) (A) (A) (A) (A)
                 (A) (A) (A) (A) (A) (A) (A) (A) (A) (A) (A) (A)
                 (A) (A) (A) (A) (A) (A) (A) (A) (A) (A) (A) (A)
                 (A) (A) (A) (A) (A) (A) (A) (A) (A) (A) (A) (A)
                 (A) (A) (A) (A) (A) (A)
       Virtual   (A) (A) (A) (A) (A) (A) (A) (A) (A) (A) (A) (A)
                 (A) (A) (A) (A) (A) (A) (A) (A) (A) (A) (A) (A)
                 (A) (A) (A) (A) (A) (A) (A) (A) (A) (A) (A) (A)
                 (A) (A) (A) (A) (A) (A) (A) (A) (A) (A) (A) (A)
                 (A) (A) (A) (A) (A) (A) (A) (A) (A) (A) (A) (A)
                 (A) (A) (A) (A) (A) (A) (A) (A) (A) (A) (A) (A)
                 (A) (A) (A) (A) (A) (A) (A) (A) (A) (A) (A) (A)
                 (A) (A) (A) (A) (A) (A) (A) (A) (A) (A) (A) (A)
                 (A) (A) (A) (A) (A) (A) (A) (A) (A) (A) (A) (A)
                 (A) (A) (A) (A) (A) (A) (A) (A) (A) (A) (A) (A)
                 (A) (A) (A) (A) (A) (A) (A) (A) (A) (A) (A) (A)
                 (A) (A) (A) (A) (A) (A) (A) (A) (A) (A) (A) (A)
                 (A) (A) (A) (A) (A) (A) (A) (A) (A) (A) (A) (A)
                 (A) (A) (A) (A) (A) (A) (A) (A) (A) (A) (A) (A)
                 (A) (A) (A) (A) (A) (A) (A) (A) (A) (A) (A) (A)
                 (A) (A) (A) (A) (A) (A) (A) (A) (A) (A) (A) (A)
                 (A) (A) (A) (A) (A) (A) (A) (A) (A) (A) (A) (A)
                 (A) (A) (A) (A) (A) (A) (A) (A) (A) (A) (A) (A)
                 (A) (A) (A) (A) (A) (A) (A) (A) (A) (A) (A) (A)
                 (A) (A) (A) (A) (A) (A) (A) (A) (A) (A) (A) (A)
                 (A) (A) (A) (A) (A) (A) (A) (A) (A) (A) (A) (A)
                 (A) (A) (A) (A) (A) (A) (A) (A) (A) (A) (A) (A)
                 (A) (A) (A) (A) (A) (A) (A) (A) (A) (A) (A) (A)
                 (A) (A) (A) (A) (A) (A) (A) (A) (A) (A) (A) (A)
                 (A) (A) (A) (A) (A) (A) (A) (A) (A) (A) (A) (A)
                 (A) (A) (A) (A) (A) (A) (A) (A) (A) (A) (A) (A)
                 (A) (A) (A) (A) (A) (A) (A) (A) (A) (A) (A) (A)
                 (A) (A) (A) (A) (A) (A) (A) (A) (A) (A) (A) (A)
                 (A) (A) (A) (A) (A) (A) (A) (A) (A) (A) (A) (A)
                 (A) (A) (A) (A) (A) (A) (A) (A) (A) (A) (A) (A)
                 (A) (A) (A) (A) (A) (A) (A) (A) (A) (A) (A) (A)
                 (A) (A) (A) (A) (A) (A) (A) (A) (A) (A) (A) (A)
                 (A) (A) (A) (A) (A) (A) (A) (A) (A) (A) (A) (A)
                 (A) (A) (A) (A) (A) (A) (A) (A) (A) (A) (A) (A)
                 (A) (A) (A) (A) (A) (A) (A) (A) (A) (A) (A) (A)
                 (A) (A) (A) (A) (A) (A) (A) (A) (A) (A) (A) (A)
                 (A) (A) (A) (A) (A) (A) (A) (A) (A) (A) (A) (A)
                 (A) (A) (A) (A) (A) (A) (A) (A) (A) (A) (A) (A)
                 (A) (A) (A) (A) (A) (A) (A) (A) (A) (A) (A) (A)
                 (A) (A) (A) (A) (A) (A) (A) (A) (A) (A) (A) (A)
                 (A) (A) (A) (A) (A) (A) (A) (A) (A) (A) (A) (A)
                 (A) (A) (A) (A) (A) (A) (A) (A) (A) (A) (A) (A)
                 (A) (A) (A) (A) (A) (A) (A) (A) (A) (A) (A) (A)
                 (A) (A) (A) (A) (A) (A) (A) (A) (A) (A) (A) (A)
                 (A) (A) (A) (A) (A) (A) (A) (A) (A) (A) (A) (A)
                 (A) (A) (A) (A) (A) (A) (A) (A) (A) (A) (A) (A)
                 (A) (A) (A) (A) (A) (A) (A) (A) (A) (A) (A) (A)
                 (A) (A) (A) (A) (A) (A) (A) (A) (A) (A) (A) (A)
                 (A) (A) (A) (A) (A) (A) (A) (A) (A) (A) (A) (A)
                 (A) (A) (A) (A) (A) (A) (A) (A) (A) (A) (A) (A)
                 (A) (A) (A) (A) (A) (A) (A) (A) (A) (A) (A) (A)
                 (A) (A) (A) (A) (A) (A) (A) (A) (A) (A) (A) (A)
                 (A) (A) (A) (A) (A) (A) (A) (A) (A) (A) (A) (A)
                 (A) (A) (A) (A) (A) (A) (A) (A) (A) (A) (A) (A)
                 (A) (A) (A) (A) (A) (A) (A) (A) (A) (A) (A) (A)
                 (A) (A) (A) (A) (A) (A) (A) (A) (A) (A) (A) (A)
                 (A) (A) (A) (A) (A) (A) (A) (A) (A) (A) (A) (A)
                 (A) (A) (A) (A) (A) (A) (A) (A) (A) (A) (A) (A)
                 (A) (A) (A) (A) (A) (A) (A) (A) (A) (A) (A) (A)
                 (A) (A) (A) (A) (A) (A) (A) (A) (A) (A) (A) (A)
                 (A) (A) (A) (A) (A) (A) (A) (A) (A) (A) (A) (A)
                 (A) (A) (A) (A) (A) (A) (A) (A) (A) (A) (A) (A)
                 (A) (A) (A) (A) (A) (A) (A) (A) (A) (A) (A) (A)
                 (A) (A) (A) (A) (A) (A) (A) (A) (A) (A) (A) (A)
                 (A) (A) (A) (A) (A) (A) (A) (A) (A) (A) (A) (A)
                 (A) (A) (A) (A) (A) (A) (A) (A) (A) (A) (A) (A)
                 (A) (A) (A) (A) (A) (A) (A) (A) (A) (A) (A) (A)
                 (A) (A) (A) (A) (A) (A) (A) (A) (A) (A) (A) (A)
                 (A) (A) (A) (A) (A) (A) (A) (A) (A) (A) (A) (A)
                 (A) (A) (A) (A) (A) (A) (A) (A) (A) (A) (A) (A)
                 (A) (A) (A) (A) (A) (A) (A) (A) (A) (A) (A) (A)
                 (A) (A) (A) (A) (A) (A) (A) (A) (A) (A) (A) (A)
                 (A) (A) (A) (A) (A) (A) (A) (A) (A) (A) (A) (A)
                 (A) (A) (A) (A) (A) (A) (A) (A) (A) (A) (A) (A)
                 (A) (A) (A) (A) (A) (A) (A) (A) (A) (A) (A) (A)
                 (A) (A) (A) (A) (A) (A) (A) (A) (A) (A) (A) (A)
                 (A) (A) (A) (A) (A) (A) (A) (A) (A) (A) (A) (A)
                 (A) (A) (A) (A) (A) (A) (A) (A) (A) (A) (A) (A)
                 (A) (A) (A) (A) (A) (A) (A) (A) (A) (A) (A) (A)
                 (A) (A) (A) (A) (A) (A) (A) (A) (A) (A) (A) (A)
                 (A) (A) (A) (A) (A) (A) (A) (A) (A) (A) (A) (A)
                 (A) (A) (A) (A) (A) (A) (A) (A) (A) (A) (A) (A)
                 (A) (A) (A) (A) (A) (A) (A) (A) (A) (A) (A) (A)
                 (A) (A) (A) (A) (A) (A) (A) (A) (A) (A) (A) (A)
                 (A) (A) (A) (A) (A) (A) (A) (A) (A) (A) (A) (A)
                 (A) (A) (A) (A) (A) (A) (A) (A) (A) (A) (A) (A)
                 (A) (A) (A) (A) (A) (A) (A) (A) (A) (A) (A) (A)
                 (A) (A) (A) (A) (A) (A) (A) (A) (A) (A) (A) (A)
                 (A) (A) (A) (A) (A) (A) (A) (A) (A) (A) (A) (A)
                 (A) (A) (A) (A) (A) (A) (A) (A) (A) (A) (A) (A)
                 (A) (A) (A) (A) (A) (A) (A) (A) (A) (A) (A) (A)
                 (A) (A) (A) (A) (A) (A) (A) (A) (A) (A) (A) (A)
                 (A) (A) (A) (A) (A) (A) (A) (A) (A) (A) (A) (A)
                 (A) (A) (A) (A) (A) (A) (A) (A) (A) (A) (A) (A)
                 (A) (A) (A) (A) (A) (A) (A) (A) (A) (A) (A) (A)
                 (A) (A) (A) (A) (A) (A) (A) (A) (A) (A) (A) (A)
                 (A) (A) (A) (A) (A) (A) (A) (A) (A) (A) (A) (A)
                 (A) (A) (A) (A) (A) (A) (A) (A) (A) (A) (A) (A)
                 (A) (A) (A) (A) (A) (A) (A) (A) (A) (A) (A) (A)
                 (A) (A) (A) (A) (A) (A) (A) (A) (A) (A) (A) (A)
                 (A) (A) (A) (A) (A) (A) (A) (A) (A) (A) (A) (A)
                 (A) (A) (A) (A) (A) (A) (A) (A) (A) (A) (A) (A)
                 (A) (A) (A) (A) (A) (A) (A) (A) (A) (A) (A) (A)
                 (A) (A) (A) (A) (A) (A) (A) (A) (A) (A) (A) (A)
                 (A) (A) (A) (A) (A) (A) (A) (A) (A) (A) (A) (A)
                 (A) (A) (A) (A) (A) (A) (A) (A) (A) (A) (A) (A)
                 (A) (A) (A) (A) (A) (A) (A) (A) (A) (A) (A) (A)
                 (A) (A) (A) (A) (A) (A) (A) (A) (A) (A) (A) (A)
                 (A) (A) (A) (A) (A) (A) (A) (A) (A) (A) (A) (A)
                 (A) (A) (A) (A) (A) (A) (A) (A) (A) (A) (A) (A)
                 (A) (A) (A) (A) (A) (A) (A) (A) (A) (A) (A) (A)
                 (A) (A) (A) (A) (A) (A) (A) (A) (A) (A) (A) (A)
                 (A) (A) (A) (A) (A) (A) (A) (A) (A) (A) (A) (A)
                 (A) (A) (A) (A) (A) (A) (A) (A) (A) (A) (A) (A)
                 (A) (A) (A) (A) (A) (A) (A) (A) (A) (A) (A) (A)
                 (A) (A) (A) (A) (A) (A) (A) (A) (A) (A) (A) (A)
                 (A) (A) (A) (A) (A) (A) (A) (A) (A) (A) (A) (A)
                 (A) (A) (A) (A) (A) (A) (A) (A) (A) (A) (A) (A)
                 (A) (A) (A) (A) (A) (A) (A) (A) (A) (A) (A) (A)
                 (A) (A) (A) (A) (A) (A) (A) (A) (A) (A) (A) (A)
                 (A) (A) (A) (A) (A) (A) (A) (A) (A) (A) (A) (A)
                 (A) (A) (A) (A) (A) (A) (A) (A) (A) (A) (A) (A)
                 (A) (A) (A) (A) (A) (A) (A) (A) (A) (A) (A) (A)
                 (A) (A) (A) (A) (A) (A) (A) (A) (A) (A) (A) (A)
                 (A) (A) (A) (A) (A) (A) (A) (A) (A) (A) (A) (A)
                 (A) (A) (A) (A) (A) (A) (A) (A) (A) (A) (A) (A)
                 (A) (A) (A) (A) (A) (A) (A) (A) (A) (A) (A) (A)
                 (A) (A) (A) (A) (A) (A) (A) (A) (A) (A) (A) (A)
                 (A) (A) (A) (A) (A) (A) (A) (A) (A) (A) (A) (A)
                 (A) (A) (A) (A) (A) (A) (A) (A) (A) (A) (A) (A)
                 (A) (A) (A) (A) (A) (A) (A) (A) (A) (A) (A) (A)
                 (A) (A) (A) (A) (A) (A) (A) (A) (A) (A) (A) (A)
                 (A) (A) (A) (A) (A) (A) (A) (A) (A) (A) (A) (A)
                 (A) (A) (A) (A) (A) (A) (A) (A) (A) (A) (A) (A)
                 (A) (A) (A) (A) (A) (A) (A) (A) (A) (A) (A) (A)
                 (A) (A) (A) (A) (A) (A) (A) (A) (A) (A) (A) (A)
                 (A) (A) (A) (A) (A) (A) (A) (A) (A) (A) (A) (A)
                 (A) (A) (A)
 The electronic state is 2-A.
 Alpha  occ. eigenvalues -- -101.07506 -19.02708 -19.01836 -19.00160 -14.20045
 Alpha  occ. eigenvalues --  -14.19766 -14.19344 -14.17890 -10.15847 -10.15302
 Alpha  occ. eigenvalues --  -10.13389 -10.12599 -10.11749 -10.11273 -10.10893
 Alpha  occ. eigenvalues --  -10.10674 -10.10639 -10.10590 -10.09662 -10.08829
 Alpha  occ. eigenvalues --  -10.08235 -10.07876 -10.07829 -10.07397 -10.07396
 Alpha  occ. eigenvalues --  -10.07392 -10.07328 -10.07313 -10.06648 -10.06538
 Alpha  occ. eigenvalues --  -10.06088 -10.05894 -10.05851 -10.05837 -10.05697
 Alpha  occ. eigenvalues --  -10.05653 -10.05580 -10.05458 -10.05382 -10.05312
 Alpha  occ. eigenvalues --  -10.05041 -10.04971 -10.04683 -10.04642 -10.04556
 Alpha  occ. eigenvalues --  -10.04484 -10.04387 -10.04214 -10.04101  -9.30502
 Alpha  occ. eigenvalues --   -7.00914  -7.00624  -7.00588  -4.00055  -3.98365
 Alpha  occ. eigenvalues --   -2.59663  -2.59216  -2.58817  -2.57774  -2.57543
 Alpha  occ. eigenvalues --   -2.54970  -1.07851  -1.06941  -1.03777  -0.95522
 Alpha  occ. eigenvalues --   -0.90793  -0.88555  -0.87480  -0.82255  -0.81105
 Alpha  occ. eigenvalues --   -0.79863  -0.79477  -0.79159  -0.78683  -0.76135
 Alpha  occ. eigenvalues --   -0.75079  -0.74445  -0.72927  -0.72809  -0.70849
 Alpha  occ. eigenvalues --   -0.70796  -0.70588  -0.69169  -0.68123  -0.66729
 Alpha  occ. eigenvalues --   -0.65873  -0.65173  -0.65045  -0.64890  -0.64729
 Alpha  occ. eigenvalues --   -0.64518  -0.63331  -0.61375  -0.61105  -0.60853
 Alpha  occ. eigenvalues --   -0.58887  -0.57014  -0.56930  -0.56462  -0.56324
 Alpha  occ. eigenvalues --   -0.55716  -0.54842  -0.52576  -0.51405  -0.50725
 Alpha  occ. eigenvalues --   -0.50359  -0.49640  -0.49226  -0.48981  -0.48745
 Alpha  occ. eigenvalues --   -0.47219  -0.46853  -0.46524  -0.46366  -0.45948
 Alpha  occ. eigenvalues --   -0.44883  -0.44196  -0.43355  -0.43245  -0.42821
 Alpha  occ. eigenvalues --   -0.42760  -0.42567  -0.42060  -0.41958  -0.41424
 Alpha  occ. eigenvalues --   -0.41279  -0.41180  -0.40926  -0.40679  -0.40552
 Alpha  occ. eigenvalues --   -0.40062  -0.39845  -0.39590  -0.39325  -0.39165
 Alpha  occ. eigenvalues --   -0.38885  -0.38134  -0.38109  -0.37965  -0.37612
 Alpha  occ. eigenvalues --   -0.37561  -0.37040  -0.36741  -0.35930  -0.35640
 Alpha  occ. eigenvalues --   -0.35583  -0.35307  -0.35068  -0.34866  -0.34522
 Alpha  occ. eigenvalues --   -0.34313  -0.34166  -0.34059  -0.33837  -0.33546
 Alpha  occ. eigenvalues --   -0.33433  -0.33218  -0.33153  -0.33106  -0.32521
 Alpha  occ. eigenvalues --   -0.32268  -0.31954  -0.31900  -0.31640  -0.31385
 Alpha  occ. eigenvalues --   -0.31199  -0.30868  -0.30660  -0.30415  -0.29980
 Alpha  occ. eigenvalues --   -0.29848  -0.29702  -0.29289  -0.29203  -0.28747
 Alpha  occ. eigenvalues --   -0.28378  -0.27425  -0.26217  -0.26078  -0.25113
 Alpha  occ. eigenvalues --   -0.24387  -0.24295  -0.23736  -0.23447  -0.23090
 Alpha  occ. eigenvalues --   -0.23028  -0.22616  -0.22270  -0.21946  -0.21346
 Alpha  occ. eigenvalues --   -0.20745  -0.20342  -0.20208  -0.19756  -0.19003
 Alpha  occ. eigenvalues --   -0.18590  -0.17469  -0.16550  -0.13804
 Alpha virt. eigenvalues --   -0.11142  -0.10079  -0.08988  -0.04882  -0.04149
 Alpha virt. eigenvalues --   -0.03969  -0.03709  -0.03467  -0.02731  -0.01591
 Alpha virt. eigenvalues --    0.00084   0.00440   0.01278   0.01707   0.02073
 Alpha virt. eigenvalues --    0.02538   0.03167   0.03583   0.04715   0.04832
 Alpha virt. eigenvalues --    0.05124   0.05609   0.05738   0.05852   0.06233
 Alpha virt. eigenvalues --    0.06555   0.06714   0.06907   0.07054   0.07359
 Alpha virt. eigenvalues --    0.07555   0.07578   0.08152   0.08325   0.08550
 Alpha virt. eigenvalues --    0.09051   0.09061   0.09245   0.09444   0.09553
 Alpha virt. eigenvalues --    0.09573   0.09861   0.10206   0.10455   0.10545
 Alpha virt. eigenvalues --    0.10707   0.10926   0.11072   0.11185   0.11532
 Alpha virt. eigenvalues --    0.11614   0.11842   0.11916   0.12233   0.12262
 Alpha virt. eigenvalues --    0.12597   0.12724   0.12916   0.13056   0.13258
 Alpha virt. eigenvalues --    0.13589   0.13622   0.13756   0.14065   0.14181
 Alpha virt. eigenvalues --    0.14215   0.14736   0.14929   0.15077   0.15250
 Alpha virt. eigenvalues --    0.15422   0.15517   0.15878   0.15960   0.16079
 Alpha virt. eigenvalues --    0.16412   0.16591   0.16887   0.16914   0.17296
 Alpha virt. eigenvalues --    0.17520   0.17783   0.18105   0.18311   0.18574
 Alpha virt. eigenvalues --    0.18836   0.18968   0.19419   0.19645   0.19944
 Alpha virt. eigenvalues --    0.20187   0.20311   0.20772   0.20790   0.21124
 Alpha virt. eigenvalues --    0.21337   0.21409   0.21520   0.21741   0.22127
 Alpha virt. eigenvalues --    0.22351   0.22735   0.22809   0.22983   0.23128
 Alpha virt. eigenvalues --    0.23255   0.23412   0.23756   0.23924   0.24053
 Alpha virt. eigenvalues --    0.24272   0.24418   0.24606   0.24800   0.24922
 Alpha virt. eigenvalues --    0.25067   0.25313   0.25481   0.25678   0.25978
 Alpha virt. eigenvalues --    0.26045   0.26251   0.26480   0.26680   0.26933
 Alpha virt. eigenvalues --    0.27124   0.27265   0.27386   0.27769   0.28039
 Alpha virt. eigenvalues --    0.28058   0.28389   0.28553   0.28663   0.28907
 Alpha virt. eigenvalues --    0.28966   0.29209   0.29299   0.29555   0.29675
 Alpha virt. eigenvalues --    0.29814   0.30105   0.30359   0.30628   0.30713
 Alpha virt. eigenvalues --    0.30837   0.31163   0.31487   0.31804   0.31978
 Alpha virt. eigenvalues --    0.32221   0.32399   0.32484   0.32721   0.32891
 Alpha virt. eigenvalues --    0.33066   0.33217   0.33498   0.33576   0.33762
 Alpha virt. eigenvalues --    0.33886   0.34042   0.34375   0.34385   0.34697
 Alpha virt. eigenvalues --    0.34864   0.35064   0.35159   0.35392   0.35521
 Alpha virt. eigenvalues --    0.35641   0.35946   0.36067   0.36139   0.36356
 Alpha virt. eigenvalues --    0.36458   0.36665   0.36876   0.36935   0.37127
 Alpha virt. eigenvalues --    0.37287   0.37394   0.37714   0.37920   0.38058
 Alpha virt. eigenvalues --    0.38201   0.38394   0.38655   0.38701   0.38711
 Alpha virt. eigenvalues --    0.39091   0.39232   0.39511   0.39602   0.39785
 Alpha virt. eigenvalues --    0.39873   0.40081   0.40322   0.40360   0.40875
 Alpha virt. eigenvalues --    0.40956   0.41191   0.41355   0.41465   0.41707
 Alpha virt. eigenvalues --    0.41962   0.42142   0.42223   0.42348   0.42517
 Alpha virt. eigenvalues --    0.42658   0.42831   0.42849   0.43078   0.43154
 Alpha virt. eigenvalues --    0.43340   0.43396   0.43461   0.43710   0.43891
 Alpha virt. eigenvalues --    0.44138   0.44403   0.44620   0.44714   0.44836
 Alpha virt. eigenvalues --    0.44924   0.45118   0.45304   0.45381   0.45692
 Alpha virt. eigenvalues --    0.45718   0.45973   0.46201   0.46489   0.46537
 Alpha virt. eigenvalues --    0.46720   0.46974   0.47162   0.47304   0.47373
 Alpha virt. eigenvalues --    0.47571   0.47869   0.48006   0.48196   0.48513
 Alpha virt. eigenvalues --    0.48758   0.48889   0.48948   0.49115   0.49460
 Alpha virt. eigenvalues --    0.49603   0.49783   0.50076   0.50412   0.50512
 Alpha virt. eigenvalues --    0.50576   0.50956   0.51343   0.51471   0.51752
 Alpha virt. eigenvalues --    0.52005   0.52225   0.52325   0.52524   0.52802
 Alpha virt. eigenvalues --    0.52953   0.53320   0.53488   0.53717   0.53971
 Alpha virt. eigenvalues --    0.54356   0.54606   0.54941   0.55370   0.55555
 Alpha virt. eigenvalues --    0.56073   0.56198   0.56357   0.56705   0.57058
 Alpha virt. eigenvalues --    0.57315   0.57648   0.57705   0.58411   0.58659
 Alpha virt. eigenvalues --    0.58954   0.59022   0.59373   0.59587   0.59980
 Alpha virt. eigenvalues --    0.60488   0.60556   0.60673   0.61045   0.61352
 Alpha virt. eigenvalues --    0.61561   0.62079   0.62167   0.62458   0.62627
 Alpha virt. eigenvalues --    0.62966   0.63270   0.63599   0.63885   0.64173
 Alpha virt. eigenvalues --    0.64386   0.64662   0.64894   0.65276   0.65299
 Alpha virt. eigenvalues --    0.65480   0.65729   0.66140   0.66643   0.66654
 Alpha virt. eigenvalues --    0.67014   0.67218   0.67488   0.67526   0.67930
 Alpha virt. eigenvalues --    0.68146   0.68168   0.68694   0.68940   0.69152
 Alpha virt. eigenvalues --    0.69403   0.69630   0.69686   0.70089   0.70178
 Alpha virt. eigenvalues --    0.70649   0.70981   0.71259   0.71397   0.71719
 Alpha virt. eigenvalues --    0.71875   0.72133   0.72457   0.72688   0.72896
 Alpha virt. eigenvalues --    0.73164   0.73404   0.73593   0.74041   0.74226
 Alpha virt. eigenvalues --    0.74582   0.74703   0.74949   0.75349   0.75889
 Alpha virt. eigenvalues --    0.76262   0.76476   0.76796   0.76913   0.77023
 Alpha virt. eigenvalues --    0.77333   0.77719   0.77776   0.78113   0.78775
 Alpha virt. eigenvalues --    0.78982   0.79448   0.79694   0.79750   0.79974
 Alpha virt. eigenvalues --    0.80303   0.80532   0.81096   0.81404   0.81539
 Alpha virt. eigenvalues --    0.82024   0.82198   0.82342   0.82593   0.82723
 Alpha virt. eigenvalues --    0.83005   0.83349   0.83610   0.84108   0.84455
 Alpha virt. eigenvalues --    0.84810   0.84876   0.84969   0.85550   0.85669
 Alpha virt. eigenvalues --    0.86174   0.86339   0.86416   0.86799   0.87260
 Alpha virt. eigenvalues --    0.87647   0.87855   0.88157   0.88240   0.88300
 Alpha virt. eigenvalues --    0.88873   0.88953   0.89396   0.89711   0.89888
 Alpha virt. eigenvalues --    0.90306   0.90569   0.90856   0.90998   0.91242
 Alpha virt. eigenvalues --    0.91572   0.91878   0.92777   0.92998   0.93391
 Alpha virt. eigenvalues --    0.93709   0.93843   0.94108   0.94389   0.94851
 Alpha virt. eigenvalues --    0.95240   0.95495   0.95921   0.96134   0.96337
 Alpha virt. eigenvalues --    0.96794   0.97332   0.97436   0.97763   0.97988
 Alpha virt. eigenvalues --    0.98566   0.98814   0.99305   0.99878   1.00367
 Alpha virt. eigenvalues --    1.00647   1.00963   1.01077   1.01462   1.01962
 Alpha virt. eigenvalues --    1.02186   1.02558   1.03076   1.03679   1.03699
 Alpha virt. eigenvalues --    1.03876   1.04387   1.04822   1.04930   1.05107
 Alpha virt. eigenvalues --    1.05887   1.06114   1.06296   1.06567   1.07003
 Alpha virt. eigenvalues --    1.07132   1.07698   1.07877   1.08142   1.08394
 Alpha virt. eigenvalues --    1.09024   1.09458   1.10009   1.10116   1.10440
 Alpha virt. eigenvalues --    1.10813   1.11227   1.11424   1.11629   1.11792
 Alpha virt. eigenvalues --    1.12069   1.12341   1.12747   1.13460   1.13708
 Alpha virt. eigenvalues --    1.14118   1.14286   1.14638   1.14866   1.15046
 Alpha virt. eigenvalues --    1.15511   1.15773   1.16057   1.16343   1.16608
 Alpha virt. eigenvalues --    1.16964   1.17045   1.17490   1.17928   1.18356
 Alpha virt. eigenvalues --    1.18541   1.18698   1.19156   1.19519   1.19915
 Alpha virt. eigenvalues --    1.19971   1.20202   1.20621   1.20946   1.21007
 Alpha virt. eigenvalues --    1.21564   1.21604   1.22157   1.22540   1.22888
 Alpha virt. eigenvalues --    1.23353   1.23676   1.23773   1.24415   1.25027
 Alpha virt. eigenvalues --    1.25172   1.25425   1.25731   1.26045   1.26344
 Alpha virt. eigenvalues --    1.26635   1.27007   1.27151   1.27571   1.27832
 Alpha virt. eigenvalues --    1.28110   1.28496   1.28667   1.29575   1.29797
 Alpha virt. eigenvalues --    1.29981   1.30075   1.30194   1.30690   1.30987
 Alpha virt. eigenvalues --    1.31908   1.32465   1.32735   1.32965   1.33127
 Alpha virt. eigenvalues --    1.33531   1.34414   1.34718   1.35152   1.35389
 Alpha virt. eigenvalues --    1.35435   1.35544   1.35791   1.36328   1.36508
 Alpha virt. eigenvalues --    1.37063   1.37681   1.37768   1.38143   1.38793
 Alpha virt. eigenvalues --    1.38803   1.39205   1.39686   1.40105   1.40427
 Alpha virt. eigenvalues --    1.41099   1.41676   1.41917   1.42219   1.42466
 Alpha virt. eigenvalues --    1.43137   1.43714   1.43900   1.44111   1.44802
 Alpha virt. eigenvalues --    1.45068   1.45579   1.45675   1.46247   1.46627
 Alpha virt. eigenvalues --    1.46905   1.47162   1.47399   1.47538   1.47956
 Alpha virt. eigenvalues --    1.48452   1.48863   1.49143   1.49216   1.49812
 Alpha virt. eigenvalues --    1.49993   1.50235   1.51096   1.51389   1.51447
 Alpha virt. eigenvalues --    1.51682   1.52122   1.52834   1.53016   1.53454
 Alpha virt. eigenvalues --    1.53797   1.54065   1.54301   1.54574   1.55258
 Alpha virt. eigenvalues --    1.55296   1.55577   1.55907   1.56111   1.56325
 Alpha virt. eigenvalues --    1.56388   1.56946   1.57359   1.57465   1.58108
 Alpha virt. eigenvalues --    1.58190   1.58502   1.58764   1.59083   1.59293
 Alpha virt. eigenvalues --    1.59369   1.59621   1.60024   1.60150   1.60336
 Alpha virt. eigenvalues --    1.60464   1.60759   1.60992   1.61100   1.61735
 Alpha virt. eigenvalues --    1.61781   1.61803   1.62166   1.62537   1.62639
 Alpha virt. eigenvalues --    1.62907   1.63279   1.63437   1.63726   1.63970
 Alpha virt. eigenvalues --    1.64319   1.64470   1.64841   1.65198   1.65893
 Alpha virt. eigenvalues --    1.66130   1.66336   1.66634   1.67058   1.67412
 Alpha virt. eigenvalues --    1.67844   1.67938   1.68182   1.68670   1.69105
 Alpha virt. eigenvalues --    1.69313   1.69449   1.69719   1.70048   1.70274
 Alpha virt. eigenvalues --    1.70611   1.71091   1.71517   1.71723   1.71885
 Alpha virt. eigenvalues --    1.72040   1.72170   1.72737   1.72870   1.73595
 Alpha virt. eigenvalues --    1.74279   1.74555   1.74949   1.75123   1.75658
 Alpha virt. eigenvalues --    1.75938   1.76186   1.76446   1.76674   1.77884
 Alpha virt. eigenvalues --    1.77964   1.78291   1.78954   1.78999   1.79570
 Alpha virt. eigenvalues --    1.79906   1.80218   1.80727   1.81421   1.81697
 Alpha virt. eigenvalues --    1.82124   1.82517   1.82708   1.83286   1.84141
 Alpha virt. eigenvalues --    1.84204   1.84628   1.84852   1.85917   1.86397
 Alpha virt. eigenvalues --    1.86887   1.87128   1.87321   1.87562   1.87782
 Alpha virt. eigenvalues --    1.88399   1.88437   1.89005   1.89322   1.89764
 Alpha virt. eigenvalues --    1.90036   1.90149   1.90552   1.90756   1.90791
 Alpha virt. eigenvalues --    1.91314   1.91803   1.92124   1.92336   1.92836
 Alpha virt. eigenvalues --    1.93198   1.93429   1.93514   1.93741   1.94702
 Alpha virt. eigenvalues --    1.94950   1.95282   1.95418   1.95660   1.96368
 Alpha virt. eigenvalues --    1.97021   1.97110   1.97234   1.97611   1.97898
 Alpha virt. eigenvalues --    1.98212   1.98789   1.99017   1.99314   1.99442
 Alpha virt. eigenvalues --    1.99688   2.00043   2.00936   2.01195   2.01475
 Alpha virt. eigenvalues --    2.01607   2.01859   2.02600   2.03296   2.03556
 Alpha virt. eigenvalues --    2.04079   2.04384   2.04700   2.05070   2.05206
 Alpha virt. eigenvalues --    2.05555   2.05843   2.06401   2.06922   2.07460
 Alpha virt. eigenvalues --    2.07933   2.08112   2.08558   2.08814   2.09305
 Alpha virt. eigenvalues --    2.09361   2.09823   2.09939   2.10389   2.10760
 Alpha virt. eigenvalues --    2.10859   2.11171   2.11199   2.11493   2.12412
 Alpha virt. eigenvalues --    2.12941   2.13042   2.13378   2.13564   2.14233
 Alpha virt. eigenvalues --    2.14669   2.14811   2.15395   2.15589   2.15997
 Alpha virt. eigenvalues --    2.16266   2.16519   2.17256   2.17746   2.17796
 Alpha virt. eigenvalues --    2.18614   2.18899   2.19002   2.19281   2.19520
 Alpha virt. eigenvalues --    2.20190   2.20356   2.20602   2.21006   2.21411
 Alpha virt. eigenvalues --    2.21932   2.22058   2.22330   2.22674   2.23400
 Alpha virt. eigenvalues --    2.23453   2.23652   2.23689   2.24149   2.24457
 Alpha virt. eigenvalues --    2.24646   2.25285   2.25308   2.25526   2.25658
 Alpha virt. eigenvalues --    2.26383   2.26546   2.26907   2.27245   2.27903
 Alpha virt. eigenvalues --    2.28301   2.28826   2.29592   2.29711   2.29834
 Alpha virt. eigenvalues --    2.30788   2.31025   2.31566   2.31684   2.32135
 Alpha virt. eigenvalues --    2.32555   2.32655   2.32887   2.33130   2.33767
 Alpha virt. eigenvalues --    2.33849   2.34277   2.34501   2.34670   2.35224
 Alpha virt. eigenvalues --    2.35680   2.36175   2.36338   2.36816   2.37297
 Alpha virt. eigenvalues --    2.37538   2.37912   2.38352   2.38692   2.38840
 Alpha virt. eigenvalues --    2.39099   2.39540   2.39969   2.40063   2.40473
 Alpha virt. eigenvalues --    2.40608   2.41565   2.41845   2.42155   2.42506
 Alpha virt. eigenvalues --    2.42713   2.43353   2.43884   2.44222   2.44462
 Alpha virt. eigenvalues --    2.45033   2.45667   2.45729   2.46011   2.46525
 Alpha virt. eigenvalues --    2.47209   2.47436   2.47906   2.48062   2.48357
 Alpha virt. eigenvalues --    2.48816   2.49290   2.49978   2.50282   2.50732
 Alpha virt. eigenvalues --    2.51160   2.51810   2.52111   2.52256   2.52383
 Alpha virt. eigenvalues --    2.52636   2.52926   2.53573   2.53744   2.53821
 Alpha virt. eigenvalues --    2.54600   2.54970   2.55184   2.55720   2.55794
 Alpha virt. eigenvalues --    2.56185   2.56416   2.56648   2.57172   2.57454
 Alpha virt. eigenvalues --    2.57628   2.57695   2.58040   2.58355   2.58662
 Alpha virt. eigenvalues --    2.58849   2.59065   2.59419   2.59510   2.60091
 Alpha virt. eigenvalues --    2.60272   2.60735   2.61399   2.61492   2.61808
 Alpha virt. eigenvalues --    2.61952   2.62420   2.62742   2.62819   2.63255
 Alpha virt. eigenvalues --    2.63508   2.63636   2.64078   2.64188   2.64410
 Alpha virt. eigenvalues --    2.64695   2.64828   2.65102   2.65642   2.65899
 Alpha virt. eigenvalues --    2.66271   2.66376   2.66978   2.67049   2.67361
 Alpha virt. eigenvalues --    2.67927   2.67970   2.68295   2.68658   2.68802
 Alpha virt. eigenvalues --    2.68862   2.69621   2.69864   2.70267   2.70354
 Alpha virt. eigenvalues --    2.70629   2.70839   2.71143   2.71333   2.71454
 Alpha virt. eigenvalues --    2.71901   2.72084   2.72355   2.72749   2.72790
 Alpha virt. eigenvalues --    2.73204   2.73405   2.73918   2.74155   2.74640
 Alpha virt. eigenvalues --    2.74823   2.75064   2.75653   2.75880   2.76275
 Alpha virt. eigenvalues --    2.77268   2.77321   2.77591   2.77861   2.78224
 Alpha virt. eigenvalues --    2.78401   2.78745   2.79358   2.79855   2.80147
 Alpha virt. eigenvalues --    2.80565   2.80721   2.80732   2.81220   2.81652
 Alpha virt. eigenvalues --    2.82128   2.82418   2.82749   2.83031   2.83371
 Alpha virt. eigenvalues --    2.83877   2.83965   2.84268   2.84514   2.84941
 Alpha virt. eigenvalues --    2.84980   2.85382   2.85615   2.86257   2.86386
 Alpha virt. eigenvalues --    2.86560   2.87128   2.87286   2.87560   2.87678
 Alpha virt. eigenvalues --    2.88127   2.88333   2.88433   2.89024   2.89217
 Alpha virt. eigenvalues --    2.89580   2.89833   2.90152   2.90507   2.90566
 Alpha virt. eigenvalues --    2.90931   2.91338   2.91711   2.92058   2.92436
 Alpha virt. eigenvalues --    2.92745   2.92965   2.93065   2.93313   2.93454
 Alpha virt. eigenvalues --    2.93748   2.93984   2.94406   2.94619   2.95282
 Alpha virt. eigenvalues --    2.95796   2.95929   2.96468   2.96636   2.96867
 Alpha virt. eigenvalues --    2.97470   2.98242   2.98661   2.98858   2.99141
 Alpha virt. eigenvalues --    2.99690   3.00177   3.00338   3.00548   3.00624
 Alpha virt. eigenvalues --    3.01231   3.01895   3.02515   3.02721   3.03107
 Alpha virt. eigenvalues --    3.03800   3.04266   3.04702   3.05145   3.05354
 Alpha virt. eigenvalues --    3.05597   3.05809   3.06117   3.06497   3.06917
 Alpha virt. eigenvalues --    3.07459   3.08042   3.08356   3.08546   3.08844
 Alpha virt. eigenvalues --    3.09366   3.09963   3.10058   3.10327   3.10870
 Alpha virt. eigenvalues --    3.11048   3.11506   3.12239   3.12269   3.12302
 Alpha virt. eigenvalues --    3.12777   3.13036   3.13405   3.13450   3.13862
 Alpha virt. eigenvalues --    3.14370   3.14750   3.15113   3.15281   3.15676
 Alpha virt. eigenvalues --    3.15910   3.16272   3.16546   3.16661   3.16885
 Alpha virt. eigenvalues --    3.17081   3.17290   3.17493   3.18035   3.18178
 Alpha virt. eigenvalues --    3.18656   3.19230   3.19425   3.19806   3.19879
 Alpha virt. eigenvalues --    3.20396   3.20704   3.21017   3.21211   3.21568
 Alpha virt. eigenvalues --    3.21575   3.21844   3.22438   3.22581   3.22700
 Alpha virt. eigenvalues --    3.22878   3.23229   3.23526   3.23969   3.24278
 Alpha virt. eigenvalues --    3.24646   3.24795   3.25248   3.25657   3.25858
 Alpha virt. eigenvalues --    3.26013   3.26413   3.26851   3.27154   3.27328
 Alpha virt. eigenvalues --    3.27504   3.27938   3.28442   3.28553   3.28753
 Alpha virt. eigenvalues --    3.28967   3.29251   3.29569   3.29771   3.30045
 Alpha virt. eigenvalues --    3.30524   3.30593   3.31247   3.31552   3.31568
 Alpha virt. eigenvalues --    3.32070   3.32127   3.32604   3.33129   3.33180
 Alpha virt. eigenvalues --    3.33614   3.33767   3.33904   3.34288   3.34437
 Alpha virt. eigenvalues --    3.34658   3.34849   3.35034   3.35436   3.35758
 Alpha virt. eigenvalues --    3.36087   3.36155   3.36459   3.36595   3.36931
 Alpha virt. eigenvalues --    3.37422   3.37788   3.37849   3.38069   3.38451
 Alpha virt. eigenvalues --    3.38583   3.38720   3.38975   3.39414   3.39675
 Alpha virt. eigenvalues --    3.40067   3.40387   3.40389   3.40950   3.41050
 Alpha virt. eigenvalues --    3.41279   3.41413   3.41728   3.41968   3.42307
 Alpha virt. eigenvalues --    3.42731   3.42853   3.42934   3.43121   3.43457
 Alpha virt. eigenvalues --    3.43788   3.43879   3.44282   3.44708   3.44886
 Alpha virt. eigenvalues --    3.45503   3.45668   3.45842   3.46048   3.46174
 Alpha virt. eigenvalues --    3.46561   3.46745   3.46988   3.47066   3.47399
 Alpha virt. eigenvalues --    3.47589   3.48291   3.48474   3.48633   3.48873
 Alpha virt. eigenvalues --    3.49232   3.49647   3.49862   3.50537   3.50646
 Alpha virt. eigenvalues --    3.50775   3.51197   3.51415   3.51591   3.51820
 Alpha virt. eigenvalues --    3.52205   3.52675   3.52794   3.53206   3.53345
 Alpha virt. eigenvalues --    3.53876   3.54237   3.54376   3.54689   3.54777
 Alpha virt. eigenvalues --    3.55410   3.55429   3.55717   3.56142   3.56581
 Alpha virt. eigenvalues --    3.56758   3.56853   3.57172   3.57385   3.57482
 Alpha virt. eigenvalues --    3.57836   3.58333   3.58618   3.59031   3.59400
 Alpha virt. eigenvalues --    3.59479   3.60080   3.60554   3.60760   3.61251
 Alpha virt. eigenvalues --    3.61683   3.62063   3.62232   3.62907   3.63493
 Alpha virt. eigenvalues --    3.63701   3.63996   3.64548   3.65232   3.65481
 Alpha virt. eigenvalues --    3.65851   3.66440   3.66686   3.67616   3.67826
 Alpha virt. eigenvalues --    3.67909   3.68325   3.68697   3.68968   3.69260
 Alpha virt. eigenvalues --    3.69742   3.69983   3.70508   3.70862   3.71386
 Alpha virt. eigenvalues --    3.72008   3.72343   3.72539   3.72830   3.73262
 Alpha virt. eigenvalues --    3.73711   3.74165   3.74213   3.74702   3.75670
 Alpha virt. eigenvalues --    3.76279   3.76362   3.77079   3.77472   3.77774
 Alpha virt. eigenvalues --    3.78020   3.78229   3.79286   3.79593   3.80107
 Alpha virt. eigenvalues --    3.80638   3.81107   3.81520   3.81894   3.82153
 Alpha virt. eigenvalues --    3.82541   3.83011   3.83219   3.83784   3.83956
 Alpha virt. eigenvalues --    3.84259   3.84967   3.85531   3.85944   3.86329
 Alpha virt. eigenvalues --    3.86910   3.87499   3.87873   3.88542   3.88858
 Alpha virt. eigenvalues --    3.89484   3.90152   3.90778   3.91976   3.92537
 Alpha virt. eigenvalues --    3.92878   3.93260   3.94038   3.94191   3.94948
 Alpha virt. eigenvalues --    3.95519   3.96142   3.96711   3.97052   3.97703
 Alpha virt. eigenvalues --    3.98131   3.98684   3.99507   4.00049   4.00281
 Alpha virt. eigenvalues --    4.00986   4.01686   4.02412   4.03231   4.03333
 Alpha virt. eigenvalues --    4.03861   4.04387   4.04973   4.05100   4.05168
 Alpha virt. eigenvalues --    4.05978   4.06727   4.07091   4.07361   4.07514
 Alpha virt. eigenvalues --    4.08119   4.08251   4.09445   4.10426   4.10672
 Alpha virt. eigenvalues --    4.11956   4.12551   4.13089   4.13180   4.13320
 Alpha virt. eigenvalues --    4.13985   4.14095   4.14638   4.14687   4.15021
 Alpha virt. eigenvalues --    4.15265   4.15382   4.16412   4.16574   4.16696
 Alpha virt. eigenvalues --    4.17296   4.17936   4.18226   4.19048   4.19161
 Alpha virt. eigenvalues --    4.19399   4.19764   4.19927   4.20309   4.20816
 Alpha virt. eigenvalues --    4.21355   4.21855   4.21976   4.22383   4.23425
 Alpha virt. eigenvalues --    4.23594   4.23774   4.24063   4.25073   4.25189
 Alpha virt. eigenvalues --    4.25453   4.25656   4.26295   4.26468   4.27219
 Alpha virt. eigenvalues --    4.27264   4.28018   4.28189   4.28696   4.29088
 Alpha virt. eigenvalues --    4.29798   4.30155   4.30612   4.31074   4.31475
 Alpha virt. eigenvalues --    4.31954   4.32689   4.33254   4.33517   4.33719
 Alpha virt. eigenvalues --    4.34396   4.34832   4.35423   4.35770   4.36448
 Alpha virt. eigenvalues --    4.36509   4.36878   4.37140   4.37576   4.37755
 Alpha virt. eigenvalues --    4.38378   4.38690   4.40467   4.40569   4.41205
 Alpha virt. eigenvalues --    4.42014   4.42550   4.43446   4.43979   4.44661
 Alpha virt. eigenvalues --    4.45151   4.45410   4.45811   4.45969   4.46231
 Alpha virt. eigenvalues --    4.46346   4.47215   4.47702   4.48413   4.48656
 Alpha virt. eigenvalues --    4.49100   4.50012   4.50210   4.50982   4.52061
 Alpha virt. eigenvalues --    4.52619   4.52982   4.53367   4.53621   4.54584
 Alpha virt. eigenvalues --    4.55637   4.55794   4.56534   4.57610   4.57863
 Alpha virt. eigenvalues --    4.58855   4.59670   4.60730   4.62855   4.63495
 Alpha virt. eigenvalues --    4.64089   4.64890   4.66444   4.67287   4.68442
 Alpha virt. eigenvalues --    4.69339   4.70133   4.70758   4.71701   4.73169
 Alpha virt. eigenvalues --    4.74202   4.75087   4.75351   4.76125   4.76841
 Alpha virt. eigenvalues --    4.77288   4.77601   4.78472   4.79428   4.81061
 Alpha virt. eigenvalues --    4.81609   4.81964   4.83317   4.83710   4.85274
 Alpha virt. eigenvalues --    4.85970   4.87097   4.87492   4.88242   4.88802
 Alpha virt. eigenvalues --    4.90562   4.91333   4.92663   4.94518   4.95627
 Alpha virt. eigenvalues --    4.96359   4.96664   4.97947   4.98516   4.98761
 Alpha virt. eigenvalues --    5.02277   5.02879   5.03265   5.04420   5.06050
 Alpha virt. eigenvalues --    5.06635   5.07166   5.08192   5.08266   5.09685
 Alpha virt. eigenvalues --    5.10068   5.10496   5.10666   5.11790   5.12412
 Alpha virt. eigenvalues --    5.12890   5.13419   5.14380   5.15298   5.15690
 Alpha virt. eigenvalues --    5.16931   5.18600   5.18664   5.19477   5.20943
[...]
 
              Baa    -0.0009    -0.481    -0.172    -0.160 -0.7036  0.0607  0.7080
    35 H(1)   Bbb    -0.0006    -0.296    -0.106    -0.099 -0.3302  0.8543 -0.4014
              Bcc     0.0015     0.778     0.277     0.259  0.6293  0.5162  0.5810
 
              Baa    -0.0008    -0.404    -0.144    -0.135 -0.4253  0.3222  0.8458
    36 H(1)   Bbb    -0.0005    -0.289    -0.103    -0.096 -0.3243  0.8182 -0.4748
              Bcc     0.0013     0.693     0.247     0.231  0.8450  0.4762  0.2435
 
              Baa    -0.0013    -0.177    -0.063    -0.059  0.6845 -0.5711  0.4531
    37 C(13)  Bbb    -0.0005    -0.073    -0.026    -0.024 -0.4153  0.2054  0.8862
              Bcc     0.0019     0.251     0.089     0.084  0.5992  0.7947  0.0966
 
              Baa    -0.0012    -0.659    -0.235    -0.220 -0.5467 -0.1162  0.8292
    38 H(1)   Bbb    -0.0010    -0.543    -0.194    -0.181  0.7572 -0.4914  0.4304
              Bcc     0.0023     1.203     0.429     0.401  0.3575  0.8631  0.3567
 
              Baa    -0.0021    -0.275    -0.098    -0.092  0.3067  0.7427  0.5953
    39 C(13)  Bbb    -0.0011    -0.142    -0.051    -0.047 -0.2984 -0.5189  0.8011
              Bcc     0.0031     0.417     0.149     0.139  0.9038 -0.4233  0.0625
 
              Baa    -0.0019    -1.028    -0.367    -0.343 -0.5457 -0.1521  0.8241
    40 H(1)   Bbb    -0.0015    -0.804    -0.287    -0.268  0.3727  0.8367  0.4012
              Bcc     0.0034     1.832     0.654     0.611  0.7505 -0.5261  0.3999
 
              Baa    -0.0126     0.913     0.326     0.305 -0.3255  0.9436 -0.0612
    41 O(17)  Bbb    -0.0103     0.744     0.266     0.248  0.6836  0.2796  0.6742
              Bcc     0.0229    -1.658    -0.592    -0.553 -0.6533 -0.1776  0.7360
 
              Baa    -0.0430     3.114     1.111     1.039  0.2425  0.9679 -0.0655
    42 O(17)  Bbb    -0.0408     2.952     1.053     0.985  0.8814 -0.1916  0.4317
              Bcc     0.0838    -6.066    -2.165    -2.023 -0.4053  0.1624  0.8996
 
              Baa    -0.1121     5.354     1.910     1.786  0.6892  0.6542 -0.3114
    43 Ni(61) Bbb     0.0339    -1.619    -0.578    -0.540  0.0113  0.4200  0.9074
              Bcc     0.0782    -3.735    -1.333    -1.246  0.7244 -0.6290  0.2821
 
              Baa    -0.0134    -0.700    -0.250    -0.233  0.1690 -0.3677  0.9145
    44 Cl(35) Bbb     0.0032     0.168     0.060     0.056  0.7408  0.6593  0.1282
              Bcc     0.0102     0.531     0.190     0.177 -0.6501  0.6558  0.3838
 
              Baa    -0.0026    -0.346    -0.123    -0.115  0.7409 -0.6681 -0.0682
    45 C(13)  Bbb    -0.0021    -0.286    -0.102    -0.095  0.4167  0.3777  0.8269
              Bcc     0.0047     0.632     0.226     0.211  0.5267  0.6411 -0.5582
 
              Baa    -0.0008    -0.111    -0.039    -0.037  0.6326 -0.6136  0.4725
    46 C(13)  Bbb    -0.0005    -0.065    -0.023    -0.022 -0.0941  0.5448  0.8333
              Bcc     0.0013     0.175     0.062     0.058  0.7687  0.5716 -0.2869
 
              Baa    -0.0010    -0.526    -0.188    -0.175  0.6550 -0.3042  0.6917
    47 H(1)   Bbb    -0.0008    -0.404    -0.144    -0.135 -0.1068  0.8690  0.4832
              Bcc     0.0017     0.930     0.332     0.310  0.7481  0.3903 -0.5367
 
              Baa    -0.0006    -0.319    -0.114    -0.107  0.1696  0.1291  0.9770
    48 H(1)   Bbb    -0.0005    -0.244    -0.087    -0.081 -0.4439  0.8951 -0.0412
              Bcc     0.0011     0.563     0.201     0.188  0.8799  0.4267 -0.2091
 
              Baa    -0.0004    -0.230    -0.082    -0.077  0.6933 -0.5683  0.4431
    49 H(1)   Bbb    -0.0004    -0.197    -0.070    -0.066 -0.0028  0.6127  0.7903
              Bcc     0.0008     0.426     0.152     0.142  0.7207  0.5491 -0.4232
 
              Baa    -0.0006    -0.077    -0.028    -0.026  0.5850 -0.4487  0.6756
    50 C(13)  Bbb    -0.0005    -0.065    -0.023    -0.022 -0.6225  0.2855  0.7287
              Bcc     0.0011     0.142     0.051     0.047  0.5198  0.8469  0.1123
 
              Baa    -0.0004    -0.207    -0.074    -0.069  0.4945 -0.3879  0.7778
    51 H(1)   Bbb    -0.0003    -0.170    -0.061    -0.057  0.6991 -0.3542 -0.6211
              Bcc     0.0007     0.377     0.135     0.126  0.5165  0.8509  0.0960
 
              Baa    -0.0003    -0.164    -0.059    -0.055  0.7750 -0.5966  0.2082
    52 H(1)   Bbb    -0.0003    -0.141    -0.050    -0.047 -0.0864  0.2263  0.9702
              Bcc     0.0006     0.306     0.109     0.102  0.6260  0.7699 -0.1238
 
              Baa    -0.0004    -0.203    -0.072    -0.068 -0.4829  0.3859  0.7861
    53 H(1)   Bbb    -0.0003    -0.168    -0.060    -0.056 -0.4588  0.6531 -0.6025
              Bcc     0.0007     0.371     0.132     0.124  0.7459  0.6516  0.1383
 
              Baa    -0.0007    -0.098    -0.035    -0.033 -0.6068  0.4761  0.6365
    54 C(13)  Bbb    -0.0005    -0.068    -0.024    -0.023  0.7095 -0.0365  0.7037
              Bcc     0.0012     0.166     0.059     0.055  0.3583  0.8786 -0.3157
 
              Baa    -0.0011    -0.571    -0.204    -0.190 -0.5250  0.5380  0.6595
    55 H(1)   Bbb    -0.0005    -0.272    -0.097    -0.091  0.8247  0.1300  0.5504
              Bcc     0.0016     0.843     0.301     0.281  0.2104  0.8328 -0.5120
 
              Baa    -0.0004    -0.238    -0.085    -0.079 -0.4906  0.5487  0.6770
    56 H(1)   Bbb    -0.0003    -0.164    -0.059    -0.055  0.7730 -0.0845  0.6287
              Bcc     0.0008     0.402     0.143     0.134  0.4022  0.8318 -0.3826
 
              Baa    -0.0006    -0.324    -0.116    -0.108 -0.4156  0.2427  0.8766
    57 H(1)   Bbb    -0.0004    -0.209    -0.075    -0.070  0.8846 -0.1165  0.4516
              Bcc     0.0010     0.534     0.190     0.178  0.2117  0.9631 -0.1663
 
              Baa    -0.0040    -0.543    -0.194    -0.181  0.3830  0.9049 -0.1855
    58 C(13)  Bbb    -0.0034    -0.460    -0.164    -0.153  0.6249 -0.1059  0.7735
              Bcc     0.0075     1.002     0.358     0.334  0.6803 -0.4122 -0.6060
 
              Baa    -0.0014    -0.186    -0.067    -0.062  0.4871  0.6598  0.5722
    59 C(13)  Bbb    -0.0009    -0.125    -0.045    -0.042 -0.1428  0.7065 -0.6932
              Bcc     0.0023     0.312     0.111     0.104  0.8616 -0.2559 -0.4384
 
              Baa    -0.0017    -0.902    -0.322    -0.301  0.5919  0.6640  0.4568
    60 H(1)   Bbb    -0.0013    -0.678    -0.242    -0.226 -0.3495  0.7222 -0.5969
              Bcc     0.0030     1.580     0.564     0.527  0.7263 -0.1936 -0.6595
 
              Baa    -0.0010    -0.543    -0.194    -0.181  0.3714  0.2215  0.9017
    61 H(1)   Bbb    -0.0009    -0.471    -0.168    -0.157 -0.0663  0.9750 -0.2122
              Bcc     0.0019     1.014     0.362     0.338  0.9261 -0.0191 -0.3768
 
              Baa    -0.0007    -0.367    -0.131    -0.122  0.4873  0.8043  0.3400
    62 H(1)   Bbb    -0.0006    -0.301    -0.108    -0.101  0.3552 -0.5382  0.7643
              Bcc     0.0013     0.668     0.238     0.223  0.7977 -0.2517 -0.5480
 
              Baa    -0.0013    -0.174    -0.062    -0.058 -0.2691 -0.5829  0.7667
    63 C(13)  Bbb    -0.0008    -0.103    -0.037    -0.034  0.6471  0.4802  0.5922
              Bcc     0.0021     0.276     0.099     0.092  0.7133 -0.6555 -0.2480
 
              Baa    -0.0009    -0.460    -0.164    -0.153 -0.0517 -0.1480  0.9876
    64 H(1)   Bbb    -0.0006    -0.344    -0.123    -0.115  0.8119  0.5696  0.1279
              Bcc     0.0015     0.803     0.287     0.268 -0.5815  0.8085  0.0907
 
              Baa    -0.0017    -0.897    -0.320    -0.299 -0.1122 -0.5645  0.8178
    65 H(1)   Bbb    -0.0011    -0.562    -0.201    -0.188  0.8613  0.3552  0.3633
              Bcc     0.0027     1.459     0.521     0.487 -0.4956  0.7451  0.4463
 
              Baa    -0.0007    -0.348    -0.124    -0.116 -0.1060 -0.5926  0.7985
    66 H(1)   Bbb    -0.0005    -0.257    -0.092    -0.086  0.7561  0.4734  0.4518
              Bcc     0.0011     0.605     0.216     0.202 -0.6458  0.6517  0.3979
 
              Baa    -0.0010    -0.130    -0.047    -0.044  0.3852  0.7667  0.5137
    67 C(13)  Bbb    -0.0009    -0.122    -0.044    -0.041 -0.3200 -0.4111  0.8536
              Bcc     0.0019     0.253     0.090     0.084  0.8656 -0.4931  0.0870
 
              Baa    -0.0006    -0.303    -0.108    -0.101  0.3448  0.7183  0.6043
    68 H(1)   Bbb    -0.0004    -0.231    -0.083    -0.077 -0.3858 -0.4785  0.7888
              Bcc     0.0010     0.534     0.190     0.178  0.8558 -0.5051  0.1121
 
              Baa    -0.0005    -0.253    -0.090    -0.084  0.4240  0.9053 -0.0250
    69 H(1)   Bbb    -0.0004    -0.196    -0.070    -0.066  0.1855 -0.0598  0.9808
              Bcc     0.0008     0.449     0.160     0.150  0.8865 -0.4205 -0.1933
 
              Baa    -0.0006    -0.319    -0.114    -0.106 -0.1279 -0.3724  0.9192
    70 H(1)   Bbb    -0.0005    -0.242    -0.086    -0.081  0.1558  0.9078  0.3895
              Bcc     0.0011     0.561     0.200     0.187  0.9795 -0.1930  0.0581
 
              Baa    -0.0018    -0.243    -0.087    -0.081  0.0244  0.9597  0.2801
    71 C(13)  Bbb    -0.0009    -0.123    -0.044    -0.041  0.9758 -0.0838  0.2021
              Bcc     0.0027     0.366     0.131     0.122 -0.2174 -0.2684  0.9384
 
              Baa    -0.0011    -0.149    -0.053    -0.050 -0.2841  0.9554 -0.0805
    72 C(13)  Bbb    -0.0008    -0.102    -0.036    -0.034  0.8390  0.2884  0.4614
              Bcc     0.0019     0.250     0.089     0.084 -0.4640 -0.0636  0.8836
 
              Baa    -0.0014    -0.187    -0.067    -0.062  0.8642  0.4650  0.1924
    73 C(13)  Bbb    -0.0010    -0.137    -0.049    -0.046 -0.4275  0.8800 -0.2068
              Bcc     0.0024     0.323     0.115     0.108 -0.2654  0.0964  0.9593
 
              Baa    -0.0010    -0.140    -0.050    -0.047 -0.1052  0.9933 -0.0478
    74 C(13)  Bbb    -0.0001    -0.013    -0.004    -0.004  0.9539  0.1144  0.2775
              Bcc     0.0011     0.153     0.055     0.051 -0.2811  0.0164  0.9595
 
              Baa    -0.0006    -0.343    -0.122    -0.114  0.0146  0.8867  0.4620
    75 H(1)   Bbb    -0.0005    -0.274    -0.098    -0.092  0.8281 -0.2697  0.4914
              Bcc     0.0012     0.617     0.220     0.206 -0.5604 -0.3754  0.7383
 
              Baa    -0.0012    -0.160    -0.057    -0.053  0.7126  0.6608  0.2357
    76 C(13)  Bbb    -0.0006    -0.085    -0.030    -0.028 -0.5588  0.7378 -0.3787
              Bcc     0.0018     0.245     0.088     0.082 -0.4241  0.1382  0.8950
 
              Baa    -0.0020    -1.094    -0.390    -0.365 -0.1686  0.9299 -0.3268
    77 H(1)   Bbb    -0.0006    -0.343    -0.122    -0.114  0.8694  0.2965  0.3953
              Bcc     0.0027     1.436     0.513     0.479 -0.4645  0.2175  0.8584
 
              Baa    -0.0008    -0.109    -0.039    -0.036 -0.0656  0.9526 -0.2972
    78 C(13)  Bbb    -0.0004    -0.053    -0.019    -0.018  0.8217  0.2206  0.5254
              Bcc     0.0012     0.162     0.058     0.054 -0.5661  0.2097  0.7972
 
              Baa    -0.0005    -0.244    -0.087    -0.081 -0.2092  0.9713 -0.1134
    79 H(1)   Bbb    -0.0004    -0.208    -0.074    -0.069  0.6504  0.2248  0.7256
              Bcc     0.0008     0.452     0.161     0.151  0.7302  0.0781 -0.6787
 
              Baa    -0.0010    -0.554    -0.198    -0.185  0.5986 -0.5107  0.6172
    80 H(1)   Bbb    -0.0008    -0.413    -0.147    -0.138  0.6387  0.7693  0.0170
              Bcc     0.0018     0.966     0.345     0.322 -0.4835  0.3840  0.7866
 
              Baa    -0.0003    -0.041    -0.015    -0.014  0.5237 -0.2858  0.8025
    81 C(13)  Bbb    -0.0003    -0.038    -0.014    -0.013  0.3534  0.9300  0.1006
              Bcc     0.0006     0.079     0.028     0.026  0.7751 -0.2309 -0.5881
 
              Baa    -0.0003    -0.169    -0.060    -0.057  0.4505 -0.3012  0.8404
    82 H(1)   Bbb    -0.0003    -0.158    -0.056    -0.053  0.2807  0.9414  0.1868
              Bcc     0.0006     0.328     0.117     0.109  0.8475 -0.1518 -0.5087
 
              Baa    -0.0002    -0.131    -0.047    -0.044  0.5162 -0.5088  0.6890
    83 H(1)   Bbb    -0.0002    -0.125    -0.045    -0.042  0.4544  0.8445  0.2833
              Bcc     0.0005     0.257     0.092     0.086  0.7260 -0.1668 -0.6671
 
              Baa    -0.0002    -0.128    -0.046    -0.043  0.4174 -0.3731  0.8286
    84 H(1)   Bbb    -0.0002    -0.120    -0.043    -0.040  0.4629  0.8719  0.1595
              Bcc     0.0005     0.248     0.088     0.083  0.7820 -0.3170 -0.5367
 
              Baa    -0.0006     0.042     0.015     0.014  0.2143  0.9596 -0.1826
    85 O(17)  Bbb    -0.0003     0.020     0.007     0.007  0.7457 -0.0400  0.6651
              Bcc     0.0009    -0.062    -0.022    -0.021 -0.6309  0.2787  0.7241
 
              Baa    -0.0013    -0.689    -0.246    -0.230  0.0763 -0.2305  0.9701
    86 H(1)   Bbb    -0.0001    -0.056    -0.020    -0.019  0.9968  0.0393 -0.0690
              Bcc     0.0014     0.745     0.266     0.249 -0.0222  0.9723  0.2328
 
              Baa    -0.0010    -0.128    -0.046    -0.043 -0.0929  0.7425  0.6634
    87 C(13)  Bbb    -0.0006    -0.079    -0.028    -0.026  0.9944  0.1029  0.0240
              Bcc     0.0015     0.207     0.074     0.069  0.0504 -0.6619  0.7479
 
              Baa    -0.0006    -0.077    -0.027    -0.026  0.7803 -0.4924 -0.3856
    88 C(13)  Bbb    -0.0004    -0.053    -0.019    -0.018  0.6247  0.6442  0.4413
              Bcc     0.0010     0.130     0.046     0.043  0.0311 -0.5852  0.8103
 
              Baa    -0.0016    -0.209    -0.075    -0.070 -0.3101  0.7894  0.5298
    89 C(13)  Bbb    -0.0010    -0.139    -0.050    -0.046  0.9501  0.2377  0.2020
              Bcc     0.0026     0.349     0.124     0.116 -0.0335 -0.5660  0.8237
 
              Baa    -0.0004    -0.048    -0.017    -0.016  0.8239  0.5140  0.2385
    90 C(13)  Bbb    -0.0002    -0.024    -0.008    -0.008 -0.5651  0.7138  0.4138
              Bcc     0.0005     0.071     0.025     0.024  0.0424 -0.4757  0.8786
 
              Baa    -0.0004    -0.222    -0.079    -0.074 -0.3249  0.6449  0.6917
    91 H(1)   Bbb    -0.0003    -0.162    -0.058    -0.054  0.9455  0.2035  0.2543
              Bcc     0.0007     0.384     0.137     0.128  0.0232  0.7366 -0.6759
 
              Baa    -0.0007    -0.089    -0.032    -0.030  0.0065  0.9195  0.3929
    92 C(13)  Bbb    -0.0005    -0.068    -0.024    -0.023  0.9522  0.1143 -0.2833
              Bcc     0.0012     0.157     0.056     0.052  0.3054 -0.3760  0.8748
 
              Baa    -0.0019    -1.010    -0.360    -0.337 -0.0642  0.9100  0.4097
    93 H(1)   Bbb    -0.0014    -0.732    -0.261    -0.244  0.9954  0.0874 -0.0382
              Bcc     0.0033     1.742     0.622     0.581  0.0706 -0.4054  0.9114
 
              Baa    -0.0005    -0.063    -0.022    -0.021  0.7227 -0.5472 -0.4221
    94 C(13)  Bbb    -0.0003    -0.038    -0.014    -0.013  0.6724  0.6981  0.2462
              Bcc     0.0008     0.101     0.036     0.034  0.1599 -0.4618  0.8725
 
              Baa    -0.0002    -0.119    -0.042    -0.040 -0.1671  0.7973  0.5800
    95 H(1)   Bbb    -0.0002    -0.105    -0.037    -0.035  0.9838  0.1733  0.0452
              Bcc     0.0004     0.223     0.080     0.074  0.0645 -0.5782  0.8133
 
              Baa    -0.0005    -0.281    -0.100    -0.094 -0.3951  0.8603  0.3221
    96 H(1)   Bbb    -0.0005    -0.242    -0.086    -0.081  0.8662  0.4657 -0.1811
              Bcc     0.0010     0.523     0.187     0.174  0.3058 -0.2075  0.9292
 
              Baa    -0.0002    -0.128    -0.045    -0.043 -0.4155  0.8085  0.4167
    97 H(1)   Bbb    -0.0002    -0.114    -0.041    -0.038  0.8852  0.4648 -0.0191
              Bcc     0.0005     0.242     0.086     0.081  0.2092 -0.3609  0.9088
 

 ---------------------------------------------------------------------------------

 1\1\GINC-M9-31-4\SP\UM06L\Gen\C41H46Cl1N4Ni2O3(2)\MALLA1\24-Aug-2022\0
 \\#m06l/gen pseudo=read integral=ultrafine temperature=308 scrf=(read)
 \\Title Card Required\\0,2\C,0,-2.619996,2.539114,-2.006126\C,0,-1.688
 927,3.58267,-1.882197\C,0,-0.364902,3.313001,-1.440518\C,0,-0.047667,1
 .937941,-1.124271\C,0,-2.230567,1.236751,-1.645169\H,0,0.474602,5.3395
 47,-1.490777\H,0,-3.637181,2.72005,-2.38072\H,0,-1.971715,4.61456,-2.1
 41454\C,0,0.679262,4.279697,-1.276056\C,0,2.189429,2.502372,-0.613445\
 C,0,1.945519,3.872394,-0.846932\H,0,2.760942,4.596978,-0.706613\N,0,1.
 200862,1.553116,-0.760485\N,0,-0.980679,0.96771,-1.178134\C,0,-3.02629
 2,0.021816,-1.806074\C,0,3.432683,1.879958,-0.23557\N,0,-2.578822,-1.1
 44462,-1.430718\N,0,3.516462,0.560266,-0.170466\Ni,0,1.716813,-0.26597
 6,-0.392816\C,0,-0.10988,-0.995441,0.934775\C,0,-0.883549,-0.430756,1.
 907482\C,0,2.010395,-2.112416,0.335251\H,0,3.070831,-2.220656,0.612155
 \C,0,0.932974,-2.073827,1.407232\H,0,0.408004,-3.061752,1.419528\C,0,1
 .564327,-2.440492,-0.967252\H,0,2.294522,-2.510791,-1.790998\C,0,0.184
 105,-2.788115,-1.222592\H,0,-0.349456,-3.334805,-0.424273\H,0,-0.70872
 7,-0.85727,2.92013\C,0,5.469168,1.589783,0.626641\H,0,5.429525,1.66730
 2,1.733798\H,0,6.485401,1.852946,0.280264\C,0,-4.545307,-1.32671,-2.74
 4241\H,0,-4.403031,-1.492101,-3.831725\H,0,-5.613682,-1.471295,-2.4940
 45\C,0,-3.558862,-2.159986,-1.869339\H,0,-3.019431,-2.901371,-2.498917
 \C,0,4.93572,0.228679,0.105886\H,0,4.985152,-0.539419,0.907333\O,0,-4.
 204415,0.065084,-2.463255\O,0,4.540707,2.577887,0.080314\Ni,0,-0.46094
 ,-0.924322,-1.060526\Cl,0,-0.098313,-0.746964,-3.444342\C,0,-4.234029,
 -2.952302,-0.697255\C,0,-5.079475,-2.015396,0.189457\H,0,-4.466508,-1.
 184194,0.593079\H,0,-5.938799,-1.575312,-0.35879\H,0,-5.498166,-2.5766
 78,1.051162\C,0,-5.131384,-4.049417,-1.312887\H,0,-4.542761,-4.74335,-
 1.950309\H,0,-5.609067,-4.650595,-0.511154\H,0,-5.94785,-3.625698,-1.9
 35458\C,0,-3.138868,-3.619971,0.159509\H,0,-2.469733,-2.861751,0.61468
 9\H,0,-3.597767,-4.216558,0.975898\H,0,-2.517682,-4.308576,-0.451713\C
 ,0,5.718615,-0.328903,-1.139065\C,0,5.77257,0.709051,-2.281303\H,0,4.7
 54064,0.97955,-2.629538\H,0,6.298418,1.640735,-1.98644\H,0,6.317788,0.
 287019,-3.151139\C,0,5.027089,-1.603801,-1.658939\H,0,4.959341,-2.3843
 23,-0.871685\H,0,4.004617,-1.375527,-2.019362\H,0,5.598796,-2.033324,-
 2.507749\C,0,7.149901,-0.69004,-0.68053\H,0,7.134866,-1.44033,0.138754
 \H,0,7.722725,-1.126025,-1.525172\H,0,7.718677,0.19363,-0.322186\C,0,-
 1.920421,0.630465,1.951375\C,0,-3.207978,0.336255,2.458024\C,0,-1.6352
 3,1.991999,1.676929\C,0,-4.194556,1.325874,2.621704\H,0,-3.448488,-0.7
 02076,2.737816\C,0,-2.599751,2.992232,1.840875\H,0,-0.618539,2.271935,
 1.366507\C,0,-3.897332,2.66855,2.300645\H,0,-5.184109,1.039714,3.00573
 5\H,0,-2.365108,4.046784,1.629095\C,0,-6.086172,3.439563,2.897252\H,0,
 -6.632897,2.735436,2.230223\H,0,-6.07362,3.019551,3.928275\H,0,-6.6195
 6,4.408738,2.910949\O,0,-4.774101,3.710152,2.419736\H,0,-0.064839,-3.1
 04524,-2.246875\C,0,1.493709,-1.859787,2.806543\C,0,1.211416,-2.781168
 ,3.838112\C,0,2.315962,-0.749129,3.108226\C,0,1.733208,-2.603337,5.133
 592\H,0,0.572591,-3.653927,3.621671\C,0,2.840752,-0.569594,4.398589\H,
 0,2.537229,-0.016607,2.313677\C,0,2.550639,-1.496524,5.418474\H,0,1.49
 8701,-3.3359,5.92268\H,0,3.478755,0.303171,4.613082\H,0,2.959914,-1.35
 3894,6.431372\\Version=ES64L-G16RevB.01\State=2-A\HF=-2834.2138499\S2=
 0.761178\S2-1=0.\S2A=0.75011\RMSD=4.514e-09\Dipole=0.3672684,0.4344087
 ,2.1766997\Quadrupole=34.7069472,-0.7696814,-33.9372658,5.5597278,2.95
 82909,-4.7169984\PG=C01 [X(C41H46Cl1N4Ni2O3)]\\@


 TO DRY ONE'S EYES AND LAUGH AT A FALL
 AND BAFFLED, GET UP AND BEGIN AGAIN.
           R. BROWNING
 Job cpu time:       2 days  1 hours 51 minutes 41.3 seconds.
 Elapsed time:       0 days  4 hours  9 minutes 34.8 seconds.
 File lengths (MBytes):  RWF=   3700 Int=      0 D2E=      0 Chk=    238 Scr=      1
 Normal termination of Gaussian 16 at Wed Aug 24 19:26:50 2022.
