 Entering Gaussian System, Link 0=g16
 Input=Pro_R_E_m06l.com
 Output=Pro_R_E_m06l.log
 Initial command:
 /apps/gaussian16/B.01/AVX2/g16/l1.exe "/tmp/51822055/Gau-6996.inp" -scrdir="/tmp/51822055/"
 Entering Link 1 = /apps/gaussian16/B.01/AVX2/g16/l1.exe PID=      6997.
  
 Copyright (c) 1988-2017, Gaussian, Inc.  All Rights Reserved.
  
 This is part of the Gaussian(R) 16 program.  It is based on
 the Gaussian(R) 09 system (copyright 2009, Gaussian, Inc.),
 the Gaussian(R) 03 system (copyright 2003, Gaussian, Inc.),
 the Gaussian(R) 98 system (copyright 1998, Gaussian, Inc.),
 the Gaussian(R) 94 system (copyright 1995, Gaussian, Inc.),
 the Gaussian 92(TM) system (copyright 1992, Gaussian, Inc.),
 the Gaussian 90(TM) system (copyright 1990, Gaussian, Inc.),
 the Gaussian 88(TM) system (copyright 1988, Gaussian, Inc.),
 the Gaussian 86(TM) system (copyright 1986, Carnegie Mellon
 University), and the Gaussian 82(TM) system (copyright 1983,
 Carnegie Mellon University). Gaussian is a federally registered
 trademark of Gaussian, Inc.
  
 This software contains proprietary and confidential information,
 including trade secrets, belonging to Gaussian, Inc.
  
 This software is provided under written license and may be
 used, copied, transmitted, or stored only in accord with that
 written license.
  
 The following legend is applicable only to US Government
 contracts under FAR:
  
                    RESTRICTED RIGHTS LEGEND
  
 Use, reproduction and disclosure by the US Government is
 subject to restrictions as set forth in subparagraphs (a)
 and (c) of the Commercial Computer Software - Restricted
 Rights clause in FAR 52.227-19.
  
 Gaussian, Inc.
 340 Quinnipiac St., Bldg. 40, Wallingford CT 06492
  
  
 ---------------------------------------------------------------
 Warning -- This program may not be used in any manner that
 competes with the business of Gaussian, Inc. or will provide
 assistance to any competitor of Gaussian, Inc.  The licensee
 of this program is prohibited from giving any competitor of
 Gaussian, Inc. access to this program.  By using this program,
 the user acknowledges that Gaussian, Inc. is engaged in the
 business of creating and licensing software in the field of
 computational chemistry and represents and warrants to the
 licensee that it is not a competitor of Gaussian, Inc. and that
 it will not use this program in any manner prohibited above.
 ---------------------------------------------------------------
  

 Cite this work as:
 Gaussian 16, Revision B.01,
 M. J. Frisch, G. W. Trucks, H. B. Schlegel, G. E. Scuseria, 
 M. A. Robb, J. R. Cheeseman, G. Scalmani, V. Barone, 
 G. A. Petersson, H. Nakatsuji, X. Li, M. Caricato, A. V. Marenich, 
 J. Bloino, B. G. Janesko, R. Gomperts, B. Mennucci, H. P. Hratchian, 
 J. V. Ortiz, A. F. Izmaylov, J. L. Sonnenberg, D. Williams-Young, 
 F. Ding, F. Lipparini, F. Egidi, J. Goings, B. Peng, A. Petrone, 
 T. Henderson, D. Ranasinghe, V. G. Zakrzewski, J. Gao, N. Rega, 
 G. Zheng, W. Liang, M. Hada, M. Ehara, K. Toyota, R. Fukuda, 
 J. Hasegawa, M. Ishida, T. Nakajima, Y. Honda, O. Kitao, H. Nakai, 
 T. Vreven, K. Throssell, J. A. Montgomery, Jr., J. E. Peralta, 
 F. Ogliaro, M. J. Bearpark, J. J. Heyd, E. N. Brothers, K. N. Kudin, 
 V. N. Staroverov, T. A. Keith, R. Kobayashi, J. Normand, 
 K. Raghavachari, A. P. Rendell, J. C. Burant, S. S. Iyengar, 
 J. Tomasi, M. Cossi, J. M. Millam, M. Klene, C. Adamo, R. Cammi, 
 J. W. Ochterski, R. L. Martin, K. Morokuma, O. Farkas, 
 J. B. Foresman, and D. J. Fox, Gaussian, Inc., Wallingford CT, 2016.
 
 ******************************************
 Gaussian 16:  ES64L-G16RevB.01 20-Dec-2017
                24-Aug-2022 
 ******************************************
 %nprocshared=12
 Will use up to   12 processors via shared memory.
 %mem=24GB
 --------------------------------------------------------------------
 #m06l/gen pseudo=read integral=ultrafine temperature=308 scrf=(read)
 --------------------------------------------------------------------
 1/38=1,40=2,112=308000,172=1/1;
 2/12=2,17=6,18=5,40=1/2;
 3/5=7,11=2,16=1,17=8,25=1,30=1,70=2203,74=-53,75=-5/1,2,3;
 4//1;
 5/5=2,38=5/2;
 6/7=2,8=2,9=2,10=2,28=1/1;
 99/5=1,9=1/99;
 -------------------
 Title Card Required
 -------------------
 Symbolic Z-matrix:
 Charge =  0 Multiplicity = 2
 C                     2.44113  -2.11925   3.03123 
 C                     1.45011  -1.84576   3.97962 
 C                     0.19906  -1.31358   3.5702 
 C                     0.0085   -1.04751   2.15708 
 C                     2.18303  -1.83691   1.67792 
 H                    -0.75931  -1.2369    5.53831 
 H                     3.41568  -2.53758   3.31859 
 H                     1.62416  -2.04756   5.04778 
 C                    -0.89045  -1.0517    4.46159 
 C                    -2.24336  -0.42265   2.56231 
 C                    -2.11529  -0.62604   3.95089 
 H                    -2.99303  -0.48461   4.59808 
 N                    -1.17464  -0.5479    1.69483 
 N                     0.9899   -1.32293   1.26001 
 C                     3.13905  -2.11416   0.60138 
 C                    -3.47715  -0.19546   1.85381 
 N                     3.10527  -1.53835  -0.56145 
 N                    -3.51101  -0.22573   0.53444 
 Ni                   -1.56747   0.06812  -0.11476 
 C                     0.2428    0.64233  -0.17299 
 C                     0.62806   1.84942   0.30182 
 C                    -1.79925   0.00062  -2.17281 
 H                    -2.77963  -0.48338  -2.30255 
 C                    -1.76715   1.38604  -1.92079 
 H                    -0.79123   1.89315  -1.93027 
 C                    -0.65733  -0.87059  -2.47069 
 H                    -0.9095   -1.93479  -2.60257 
 C                     0.67675  -0.50351  -2.70563 
 H                     0.97332   0.5519   -2.81127 
 H                    -0.21246   2.52073   0.58402 
 C                    -5.60559   0.32824   1.4465 
 H                    -5.72861   1.43198   1.42215 
 H                    -6.57029  -0.14031   1.7157 
 C                     4.74127  -3.27832  -0.45435 
 H                     4.6242   -4.33611  -0.75952 
 H                     5.81683  -3.07099  -0.27881 
 C                     4.05663  -2.2683   -1.42878 
 H                     3.43151  -2.82434  -2.16571 
 C                    -4.94664  -0.22055   0.15612 
 H                    -5.10319   0.48144  -0.68843 
 O                     4.04129  -3.10277   0.81049 
 O                    -4.64463   0.00955   2.49957 
 Ni                    0.74981  -1.07306  -0.70938 
 Cl                    0.63706  -3.4091   -1.1042 
 C                     5.04763  -1.37656  -2.24373 
 C                     5.97625  -0.56607  -1.31666 
 H                     5.39014   0.06271  -0.61768 
 H                     6.6458   -1.21382  -0.71297 
 H                     6.62652   0.10645  -1.91407 
 C                     5.8921   -2.3067   -3.14519 
 H                     5.24704  -2.90646  -3.82225 
 H                     6.583    -1.71004  -3.77698 
 H                     6.51424  -3.01219  -2.55428 
 C                     4.24525  -0.4072   -3.13569 
 H                     3.62106   0.27677  -2.52737 
 H                     4.93188   0.20905  -3.7535 
 H                     3.57539  -0.96023  -3.82732 
 C                    -5.48239  -1.63516  -0.28417 
 C                    -5.37284  -2.66435   0.86228 
 H                    -4.31803  -2.81301   1.17316 
 H                    -5.95957  -2.36916   1.75656 
 H                    -5.75931  -3.64906   0.52585 
 C                    -4.67619  -2.1536   -1.49218 
 H                    -4.7537   -1.4636   -2.35941 
 H                    -3.60589  -2.28458  -1.23611 
 H                    -5.06844  -3.13845  -1.82113 
 C                    -6.96007  -1.47395  -0.70883 
 H                    -7.0662   -0.73693  -1.53328 
 H                    -7.3625   -2.44315  -1.07017 
 H                    -7.6096   -1.14269   0.12834 
 C                     1.94175   2.47715   0.51878 
 C                     1.98646   3.81601   0.98176 
 C                     3.18388   1.81898   0.31008 
 C                     3.19664   4.48518   1.23031 
 H                     1.03916   4.35358   1.15613 
 C                     4.39357   2.474     0.55447 
 H                     3.18475   0.77422  -0.04243 
 C                     4.41891   3.81223   1.01644 
 H                     3.17387   5.52383   1.58987 
 H                     5.35755   1.96642   0.3957 
 C                     5.73735   5.69663   1.68702 
 H                     5.27721   6.4118    0.96841 
 H                     5.24887   5.8219    2.67964 
 H                     6.81465   5.9285    1.7848 
 O                     5.6558    4.35468   1.22306 
 H                     1.35522  -1.2571   -3.13238 
 C                    -2.92528   2.29649  -1.92937 
 C                    -4.17197   1.95992  -2.52122 
 C                    -2.78026   3.60388  -1.39114 
 C                    -5.23226   2.88021  -2.5457 
 H                    -4.29806   0.97941  -3.00605 
 C                    -3.84303   4.51851  -1.40686 
 H                    -1.81246   3.89687  -0.95302 
 C                    -5.07843   4.15999  -1.98019 
 H                    -6.1844    2.6001   -3.02424 
 H                    -3.70509   5.52342  -0.97686 
 H                    -5.91096   4.88074  -2.00282 
 
 Stoichiometry    C41H46ClN4Ni2O3(2)
 Framework group  C1[X(C41H46ClN4Ni2O3)]
 Deg. of freedom   285
 Full point group                 C1      NOp   1
 Largest Abelian subgroup         C1      NOp   1
 Largest concise Abelian subgroup C1      NOp   1
                         Standard orientation:                         
 ---------------------------------------------------------------------
 Center     Atomic      Atomic             Coordinates (Angstroms)
 Number     Number       Type             X           Y           Z
 ---------------------------------------------------------------------
      1          6           0        2.441134   -2.119250    3.031227
      2          6           0        1.450112   -1.845763    3.979620
      3          6           0        0.199055   -1.313580    3.570203
      4          6           0        0.008500   -1.047513    2.157080
      5          6           0        2.183025   -1.836905    1.677922
      6          1           0       -0.759309   -1.236895    5.538306
      7          1           0        3.415677   -2.537582    3.318589
      8          1           0        1.624155   -2.047564    5.047779
      9          6           0       -0.890447   -1.051703    4.461588
     10          6           0       -2.243363   -0.422646    2.562312
     11          6           0       -2.115290   -0.626036    3.950887
     12          1           0       -2.993026   -0.484606    4.598078
     13          7           0       -1.174635   -0.547899    1.694833
     14          7           0        0.989903   -1.322928    1.260010
     15          6           0        3.139055   -2.114159    0.601376
     16          6           0       -3.477152   -0.195460    1.853813
     17          7           0        3.105274   -1.538345   -0.561447
     18          7           0       -3.511009   -0.225730    0.534439
     19         28           0       -1.567470    0.068118   -0.114759
     20          6           0        0.242796    0.642327   -0.172990
     21          6           0        0.628061    1.849419    0.301821
     22          6           0       -1.799247    0.000619   -2.172811
     23          1           0       -2.779627   -0.483380   -2.302550
     24          6           0       -1.767153    1.386041   -1.920789
     25          1           0       -0.791228    1.893153   -1.930274
     26          6           0       -0.657334   -0.870586   -2.470685
     27          1           0       -0.909498   -1.934786   -2.602573
     28          6           0        0.676746   -0.503512   -2.705633
     29          1           0        0.973324    0.551902   -2.811269
     30          1           0       -0.212461    2.520733    0.584017
     31          6           0       -5.605586    0.328243    1.446498
     32          1           0       -5.728606    1.431979    1.422150
     33          1           0       -6.570287   -0.140311    1.715701
     34          6           0        4.741275   -3.278320   -0.454349
     35          1           0        4.624200   -4.336111   -0.759520
     36          1           0        5.816826   -3.070989   -0.278805
     37          6           0        4.056627   -2.268295   -1.428781
     38          1           0        3.431506   -2.824343   -2.165711
     39          6           0       -4.946635   -0.220549    0.156117
     40          1           0       -5.103194    0.481444   -0.688432
     41          8           0        4.041294   -3.102775    0.810488
     42          8           0       -4.644625    0.009552    2.499566
     43         28           0        0.749810   -1.073056   -0.709381
     44         17           0        0.637056   -3.409097   -1.104199
     45          6           0        5.047627   -1.376559   -2.243733
     46          6           0        5.976252   -0.566074   -1.316657
     47          1           0        5.390137    0.062705   -0.617677
     48          1           0        6.645802   -1.213817   -0.712968
     49          1           0        6.626516    0.106453   -1.914074
     50          6           0        5.892102   -2.306701   -3.145185
     51          1           0        5.247045   -2.906458   -3.822245
     52          1           0        6.583004   -1.710041   -3.776975
     53          1           0        6.514236   -3.012187   -2.554277
     54          6           0        4.245254   -0.407204   -3.135691
     55          1           0        3.621063    0.276770   -2.527368
     56          1           0        4.931881    0.209053   -3.753503
     57          1           0        3.575385   -0.960225   -3.827317
     58          6           0       -5.482392   -1.635164   -0.284165
     59          6           0       -5.372843   -2.664351    0.862276
     60          1           0       -4.318029   -2.813007    1.173158
     61          1           0       -5.959568   -2.369161    1.756556
     62          1           0       -5.759314   -3.649064    0.525850
     63          6           0       -4.676189   -2.153604   -1.492178
     64          1           0       -4.753704   -1.463603   -2.359411
     65          1           0       -3.605888   -2.284577   -1.236105
     66          1           0       -5.068437   -3.138452   -1.821130
     67          6           0       -6.960072   -1.473954   -0.708825
     68          1           0       -7.066195   -0.736932   -1.533275
     69          1           0       -7.362502   -2.443153   -1.070174
     70          1           0       -7.609604   -1.142689    0.128342
     71          6           0        1.941750    2.477149    0.518780
     72          6           0        1.986463    3.816007    0.981760
     73          6           0        3.183883    1.818984    0.310084
     74          6           0        3.196638    4.485182    1.230312
     75          1           0        1.039163    4.353575    1.156125
     76          6           0        4.393572    2.474004    0.554469
     77          1           0        3.184746    0.774215   -0.042425
     78          6           0        4.418910    3.812234    1.016440
     79          1           0        3.173865    5.523829    1.589867
     80          1           0        5.357550    1.966423    0.395698
     81          6           0        5.737353    5.696632    1.687022
     82          1           0        5.277210    6.411797    0.968405
     83          1           0        5.248867    5.821900    2.679640
     84          1           0        6.814649    5.928504    1.784802
     85          8           0        5.655797    4.354682    1.223058
     86          1           0        1.355218   -1.257098   -3.132379
     87          6           0       -2.925279    2.296485   -1.929374
     88          6           0       -4.171972    1.959920   -2.521218
     89          6           0       -2.780258    3.603878   -1.391141
     90          6           0       -5.232259    2.880206   -2.545695
     91          1           0       -4.298058    0.979410   -3.006048
     92          6           0       -3.843034    4.518505   -1.406863
     93          1           0       -1.812457    3.896868   -0.953019
     94          6           0       -5.078435    4.159987   -1.980191
     95          1           0       -6.184405    2.600101   -3.024240
     96          1           0       -3.705093    5.523422   -0.976861
     97          1           0       -5.910955    4.880742   -2.002818
 ---------------------------------------------------------------------
 Rotational constants (GHZ):           0.0736346           0.0403923           0.0361178
 General basis read from cards:  (5D, 7F)
 ======================================================================================================
                                       Pseudopotential Parameters
 ======================================================================================================
  Center     Atomic      Valence      Angular      Power
  Number     Number     Electrons     Momentum     of R      Exponent        Coefficient   SO-Coeffient
 ======================================================================================================
    1          6
                                   No pseudopotential on this center.
    2          6
                                   No pseudopotential on this center.
    3          6
                                   No pseudopotential on this center.
    4          6
                                   No pseudopotential on this center.
    5          6
                                   No pseudopotential on this center.
    6          1
                                   No pseudopotential on this center.
    7          1
                                   No pseudopotential on this center.
    8          1
                                   No pseudopotential on this center.
    9          6
                                   No pseudopotential on this center.
   10          6
                                   No pseudopotential on this center.
   11          6
                                   No pseudopotential on this center.
   12          1
                                   No pseudopotential on this center.
   13          7
                                   No pseudopotential on this center.
   14          7
                                   No pseudopotential on this center.
   15          6
                                   No pseudopotential on this center.
   16          6
                                   No pseudopotential on this center.
   17          7
                                   No pseudopotential on this center.
   18          7
                                   No pseudopotential on this center.
   19         28           18
                                      D and up 
                                                     1      469.9324331      -10.00000000    0.00000000
                                                     2       85.4236411      -69.40848050    0.00000000
                                                     2       21.2674984      -12.09510200    0.00000000
                                      S - D
                                                     0      162.1686097        3.00000000    0.00000000
                                                     1      176.5333232       22.02536180    0.00000000
                                                     2       68.9562010      443.01810880    0.00000000
                                                     2       13.5792838      145.56964110    0.00000000
                                      P - D
                                                     0       69.0181506        5.00000000    0.00000000
                                                     1      275.5955596        4.98828240    0.00000000
                                                     2       47.1315453      256.69458530    0.00000000
                                                     2       12.9874075       78.47544500    0.00000000
   20          6
                                   No pseudopotential on this center.
   21          6
                                   No pseudopotential on this center.
   22          6
                                   No pseudopotential on this center.
   23          1
                                   No pseudopotential on this center.
   24          6
                                   No pseudopotential on this center.
   25          1
                                   No pseudopotential on this center.
   26          6
                                   No pseudopotential on this center.
   27          1
                                   No pseudopotential on this center.
   28          6
                                   No pseudopotential on this center.
   29          1
                                   No pseudopotential on this center.
   30          1
                                   No pseudopotential on this center.
   31          6
                                   No pseudopotential on this center.
   32          1
                                   No pseudopotential on this center.
   33          1
                                   No pseudopotential on this center.
   34          6
                                   No pseudopotential on this center.
   35          1
                                   No pseudopotential on this center.
   36          1
                                   No pseudopotential on this center.
   37          6
                                   No pseudopotential on this center.
   38          1
                                   No pseudopotential on this center.
   39          6
                                   No pseudopotential on this center.
   40          1
                                   No pseudopotential on this center.
   41          8
                                   No pseudopotential on this center.
   42          8
                                   No pseudopotential on this center.
   43         28           18
                                      D and up 
                                                     1      469.9324331      -10.00000000    0.00000000
                                                     2       85.4236411      -69.40848050    0.00000000
                                                     2       21.2674984      -12.09510200    0.00000000
                                      S - D
                                                     0      162.1686097        3.00000000    0.00000000
                                                     1      176.5333232       22.02536180    0.00000000
                                                     2       68.9562010      443.01810880    0.00000000
                                                     2       13.5792838      145.56964110    0.00000000
                                      P - D
                                                     0       69.0181506        5.00000000    0.00000000
                                                     1      275.5955596        4.98828240    0.00000000
                                                     2       47.1315453      256.69458530    0.00000000
                                                     2       12.9874075       78.47544500    0.00000000
   44         17
                                   No pseudopotential on this center.
   45          6
                                   No pseudopotential on this center.
   46          6
                                   No pseudopotential on this center.
   47          1
                                   No pseudopotential on this center.
   48          1
                                   No pseudopotential on this center.
   49          1
                                   No pseudopotential on this center.
   50          6
                                   No pseudopotential on this center.
   51          1
                                   No pseudopotential on this center.
   52          1
                                   No pseudopotential on this center.
   53          1
                                   No pseudopotential on this center.
   54          6
                                   No pseudopotential on this center.
   55          1
                                   No pseudopotential on this center.
   56          1
                                   No pseudopotential on this center.
   57          1
                                   No pseudopotential on this center.
   58          6
                                   No pseudopotential on this center.
   59          6
                                   No pseudopotential on this center.
   60          1
                                   No pseudopotential on this center.
   61          1
                                   No pseudopotential on this center.
   62          1
                                   No pseudopotential on this center.
   63          6
                                   No pseudopotential on this center.
   64          1
                                   No pseudopotential on this center.
   65          1
                                   No pseudopotential on this center.
   66          1
                                   No pseudopotential on this center.
   67          6
                                   No pseudopotential on this center.
   68          1
                                   No pseudopotential on this center.
   69          1
                                   No pseudopotential on this center.
   70          1
                                   No pseudopotential on this center.
   71          6
                                   No pseudopotential on this center.
   72          6
                                   No pseudopotential on this center.
   73          6
                                   No pseudopotential on this center.
   74          6
                                   No pseudopotential on this center.
   75          1
                                   No pseudopotential on this center.
   76          6
                                   No pseudopotential on this center.
   77          1
                                   No pseudopotential on this center.
   78          6
                                   No pseudopotential on this center.
   79          1
                                   No pseudopotential on this center.
   80          1
                                   No pseudopotential on this center.
   81          6
                                   No pseudopotential on this center.
   82          1
                                   No pseudopotential on this center.
   83          1
                                   No pseudopotential on this center.
   84          1
                                   No pseudopotential on this center.
   85          8
                                   No pseudopotential on this center.
   86          1
                                   No pseudopotential on this center.
   87          6
                                   No pseudopotential on this center.
   88          6
                                   No pseudopotential on this center.
   89          6
                                   No pseudopotential on this center.
   90          6
                                   No pseudopotential on this center.
   91          1
                                   No pseudopotential on this center.
   92          6
                                   No pseudopotential on this center.
   93          1
                                   No pseudopotential on this center.
   94          6
                                   No pseudopotential on this center.
   95          1
                                   No pseudopotential on this center.
   96          1
                                   No pseudopotential on this center.
   97          1
                                   No pseudopotential on this center.
 ======================================================================================================
 There are  2094 symmetry adapted cartesian basis functions of A   symmetry.
 There are  1845 symmetry adapted basis functions of A   symmetry.
  1845 basis functions,  2989 primitive gaussians,  2094 cartesian basis functions
   199 alpha electrons      198 beta electrons
       nuclear repulsion energy      8364.2459200367 Hartrees.
 NAtoms=   97 NActive=   97 NUniq=   97 SFac= 1.00D+00 NAtFMM=   60 NAOKFM=T Big=T
 Integral buffers will be    131072 words long.
 Raffenetti 2 integral format.
 Two-electron integral symmetry is turned on.
 Using the following non-standard input for PCM:
 Eps=4.5
 --- end of non-standard input.
 ------------------------------------------------------------------------------
 Polarizable Continuum Model (PCM)
 =================================
 Model                : PCM.
 Atomic radii         : UFF (Universal Force Field).
 Polarization charges : Total charges.
 Charge compensation  : None.
 Solution method      : On-the-fly selection.
 Cavity type          : Scaled VdW (van der Waals Surface) (Alpha=1.100).
 Cavity algorithm     : GePol (No added spheres)
                        Default sphere list used, NSphG=   97.
                        Lebedev-Laikov grids with approx.  5.0 points / Ang**2.
                        Smoothing algorithm: York/Karplus (Gamma=1.0000).
                        Polarization charges: spherical gaussians, with
                                              point-specific exponents (IZeta= 3).
                        Self-potential: point-specific (ISelfS= 7).
                        Self-field    : sphere-specific E.n sum rule (ISelfD= 2).
 Solvent              : Water, Eps=   4.500000 Eps(inf)=   1.777849
 ------------------------------------------------------------------------------
 One-electron integrals computed using PRISM.
   1 Symmetry operations used in ECPInt.
 ECPInt:  NShTT=  274911 NPrTT=  843013 LenC2=  199990 LenP2D=  400689.
 LDataN:  DoStor=T MaxTD1= 6 Len=  172
 NBasis=  1845 RedAO= T EigKep=  6.20D-06  NBF=  1845
 NBsUse=  1845 1.00D-06 EigRej= -1.00D+00 NBFU=  1845
 ExpMin= 2.40D-02 ExpMax= 6.95D+04 ExpMxC= 2.37D+03 IAcc=3 IRadAn=         5 AccDes= 0.00D+00
 Harris functional with IExCor= 1009 and IRadAn=       5 diagonalized for initial guess.
 HarFok:  IExCor= 1009 AccDes= 0.00D+00 IRadAn=         5 IDoV= 1 UseB2=F ITyADJ=14
 ICtDFT=  3500011 ScaDFX=  1.000000  1.000000  1.000000  1.000000
 FoFCou: FMM=F IPFlag=           0 FMFlag=      100000 FMFlg1=        2001
         NFxFlg=           0 DoJE=T BraDBF=F KetDBF=T FulRan=T
         wScrn=  0.000000 ICntrl=       500 IOpCl=  0 I1Cent=   200000004 NGrid=           0
         NMat0=    1 NMatS0=      1 NMatT0=    0 NMatD0=    1 NMtDS0=    0 NMtDT0=    0
 Petite list used in FoFCou.
 Initial guess <Sx>= 0.0000 <Sy>= 0.0000 <Sz>= 0.5000 <S**2>= 0.7500 S= 0.5000
 Requested convergence on RMS density matrix=1.00D-08 within 128 cycles.
 Requested convergence on MAX density matrix=1.00D-06.
 Requested convergence on             energy=1.00D-06.
 No special actions if energy rises.
 Inv3:  Mode=1 IEnd=   107281200.
 Iteration    1 A*A^-1 deviation from unit magnitude is 3.33D-15 for   5807.
 Iteration    1 A*A^-1 deviation from orthogonality  is 2.58D-15 for   2350    354.
 Iteration    1 A^-1*A deviation from unit magnitude is 3.11D-15 for   1453.
 Iteration    1 A^-1*A deviation from orthogonality  is 2.65D-15 for   3617   3409.
 EnCoef did   100 forward-backward iterations
 EnCoef did   100 forward-backward iterations
 EnCoef did    16 forward-backward iterations
 EnCoef did     3 forward-backward iterations
 EnCoef did     7 forward-backward iterations
 EnCoef did   100 forward-backward iterations
 EnCoef did     3 forward-backward iterations
 EnCoef did     5 forward-backward iterations
 Restarting incremental Fock formation.
 Error on total polarization charges =  0.01874
 SCF Done:  E(UM06L) =  -2834.19024456     A.U. after   35 cycles
            NFock= 35  Conv=0.33D-08     -V/T= 2.0518
 <Sx>= 0.0000 <Sy>= 0.0000 <Sz>= 0.5000 <S**2>= 0.7779 S= 0.5138
 <L.S>=  0.00000000000    
 Annihilation of the first spin contaminant:
 S**2 before annihilation     0.7779,   after     0.7506

 **********************************************************************

            Population analysis using the SCF Density.

 **********************************************************************

 Orbital symmetries:
 Alpha Orbitals:
       Occupied  (A) (A) (A) (A) (A) (A) (A) (A) (A) (A) (A) (A)
                 (A) (A) (A) (A) (A) (A) (A) (A) (A) (A) (A) (A)
                 (A) (A) (A) (A) (A) (A) (A) (A) (A) (A) (A) (A)
                 (A) (A) (A) (A) (A) (A) (A) (A) (A) (A) (A) (A)
                 (A) (A) (A) (A) (A) (A) (A) (A) (A) (A) (A) (A)
                 (A) (A) (A) (A) (A) (A) (A) (A) (A) (A) (A) (A)
                 (A) (A) (A) (A) (A) (A) (A) (A) (A) (A) (A) (A)
                 (A) (A) (A) (A) (A) (A) (A) (A) (A) (A) (A) (A)
                 (A) (A) (A) (A) (A) (A) (A) (A) (A) (A) (A) (A)
                 (A) (A) (A) (A) (A) (A) (A) (A) (A) (A) (A) (A)
                 (A) (A) (A) (A) (A) (A) (A) (A) (A) (A) (A) (A)
                 (A) (A) (A) (A) (A) (A) (A) (A) (A) (A) (A) (A)
                 (A) (A) (A) (A) (A) (A) (A) (A) (A) (A) (A) (A)
                 (A) (A) (A) (A) (A) (A) (A) (A) (A) (A) (A) (A)
                 (A) (A) (A) (A) (A) (A) (A) (A) (A) (A) (A) (A)
                 (A) (A) (A) (A) (A) (A) (A) (A) (A) (A) (A) (A)
                 (A) (A) (A) (A) (A) (A) (A)
       Virtual   (A) (A) (A) (A) (A) (A) (A) (A) (A) (A) (A) (A)
                 (A) (A) (A) (A) (A) (A) (A) (A) (A) (A) (A) (A)
                 (A) (A) (A) (A) (A) (A) (A) (A) (A) (A) (A) (A)
                 (A) (A) (A) (A) (A) (A) (A) (A) (A) (A) (A) (A)
                 (A) (A) (A) (A) (A) (A) (A) (A) (A) (A) (A) (A)
                 (A) (A) (A) (A) (A) (A) (A) (A) (A) (A) (A) (A)
                 (A) (A) (A) (A) (A) (A) (A) (A) (A) (A) (A) (A)
                 (A) (A) (A) (A) (A) (A) (A) (A) (A) (A) (A) (A)
                 (A) (A) (A) (A) (A) (A) (A) (A) (A) (A) (A) (A)
                 (A) (A) (A) (A) (A) (A) (A) (A) (A) (A) (A) (A)
                 (A) (A) (A) (A) (A) (A) (A) (A) (A) (A) (A) (A)
                 (A) (A) (A) (A) (A) (A) (A) (A) (A) (A) (A) (A)
                 (A) (A) (A) (A) (A) (A) (A) (A) (A) (A) (A) (A)
                 (A) (A) (A) (A) (A) (A) (A) (A) (A) (A) (A) (A)
                 (A) (A) (A) (A) (A) (A) (A) (A) (A) (A) (A) (A)
                 (A) (A) (A) (A) (A) (A) (A) (A) (A) (A) (A) (A)
                 (A) (A) (A) (A) (A) (A) (A) (A) (A) (A) (A) (A)
                 (A) (A) (A) (A) (A) (A) (A) (A) (A) (A) (A) (A)
                 (A) (A) (A) (A) (A) (A) (A) (A) (A) (A) (A) (A)
                 (A) (A) (A) (A) (A) (A) (A) (A) (A) (A) (A) (A)
                 (A) (A) (A) (A) (A) (A) (A) (A) (A) (A) (A) (A)
                 (A) (A) (A) (A) (A) (A) (A) (A) (A) (A) (A) (A)
                 (A) (A) (A) (A) (A) (A) (A) (A) (A) (A) (A) (A)
                 (A) (A) (A) (A) (A) (A) (A) (A) (A) (A) (A) (A)
                 (A) (A) (A) (A) (A) (A) (A) (A) (A) (A) (A) (A)
                 (A) (A) (A) (A) (A) (A) (A) (A) (A) (A) (A) (A)
                 (A) (A) (A) (A) (A) (A) (A) (A) (A) (A) (A) (A)
                 (A) (A) (A) (A) (A) (A) (A) (A) (A) (A) (A) (A)
                 (A) (A) (A) (A) (A) (A) (A) (A) (A) (A) (A) (A)
                 (A) (A) (A) (A) (A) (A) (A) (A) (A) (A) (A) (A)
                 (A) (A) (A) (A) (A) (A) (A) (A) (A) (A) (A) (A)
                 (A) (A) (A) (A) (A) (A) (A) (A) (A) (A) (A) (A)
                 (A) (A) (A) (A) (A) (A) (A) (A) (A) (A) (A) (A)
                 (A) (A) (A) (A) (A) (A) (A) (A) (A) (A) (A) (A)
                 (A) (A) (A) (A) (A) (A) (A) (A) (A) (A) (A) (A)
                 (A) (A) (A) (A) (A) (A) (A) (A) (A) (A) (A) (A)
                 (A) (A) (A) (A) (A) (A) (A) (A) (A) (A) (A) (A)
                 (A) (A) (A) (A) (A) (A) (A) (A) (A) (A) (A) (A)
                 (A) (A) (A) (A) (A) (A) (A) (A) (A) (A) (A) (A)
                 (A) (A) (A) (A) (A) (A) (A) (A) (A) (A) (A) (A)
                 (A) (A) (A) (A) (A) (A) (A) (A) (A) (A) (A) (A)
                 (A) (A) (A) (A) (A) (A) (A) (A) (A) (A) (A) (A)
                 (A) (A) (A) (A) (A) (A) (A) (A) (A) (A) (A) (A)
                 (A) (A) (A) (A) (A) (A) (A) (A) (A) (A) (A) (A)
                 (A) (A) (A) (A) (A) (A) (A) (A) (A) (A) (A) (A)
                 (A) (A) (A) (A) (A) (A) (A) (A) (A) (A) (A) (A)
                 (A) (A) (A) (A) (A) (A) (A) (A) (A) (A) (A) (A)
                 (A) (A) (A) (A) (A) (A) (A) (A) (A) (A) (A) (A)
                 (A) (A) (A) (A) (A) (A) (A) (A) (A) (A) (A) (A)
                 (A) (A) (A) (A) (A) (A) (A) (A) (A) (A) (A) (A)
                 (A) (A) (A) (A) (A) (A) (A) (A) (A) (A) (A) (A)
                 (A) (A) (A) (A) (A) (A) (A) (A) (A) (A) (A) (A)
                 (A) (A) (A) (A) (A) (A) (A) (A) (A) (A) (A) (A)
                 (A) (A) (A) (A) (A) (A) (A) (A) (A) (A) (A) (A)
                 (A) (A) (A) (A) (A) (A) (A) (A) (A) (A) (A) (A)
                 (A) (A) (A) (A) (A) (A) (A) (A) (A) (A) (A) (A)
                 (A) (A) (A) (A) (A) (A) (A) (A) (A) (A) (A) (A)
                 (A) (A) (A) (A) (A) (A) (A) (A) (A) (A) (A) (A)
                 (A) (A) (A) (A) (A) (A) (A) (A) (A) (A) (A) (A)
                 (A) (A) (A) (A) (A) (A) (A) (A) (A) (A) (A) (A)
                 (A) (A) (A) (A) (A) (A) (A) (A) (A) (A) (A) (A)
                 (A) (A) (A) (A) (A) (A) (A) (A) (A) (A) (A) (A)
                 (A) (A) (A) (A) (A) (A) (A) (A) (A) (A) (A) (A)
                 (A) (A) (A) (A) (A) (A) (A) (A) (A) (A) (A) (A)
                 (A) (A) (A) (A) (A) (A) (A) (A) (A) (A) (A) (A)
                 (A) (A) (A) (A) (A) (A) (A) (A) (A) (A) (A) (A)
                 (A) (A) (A) (A) (A) (A) (A) (A) (A) (A) (A) (A)
                 (A) (A) (A) (A) (A) (A) (A) (A) (A) (A) (A) (A)
                 (A) (A) (A) (A) (A) (A) (A) (A) (A) (A) (A) (A)
                 (A) (A) (A) (A) (A) (A) (A) (A) (A) (A) (A) (A)
                 (A) (A) (A) (A) (A) (A) (A) (A) (A) (A) (A) (A)
                 (A) (A) (A) (A) (A) (A) (A) (A) (A) (A) (A) (A)
                 (A) (A) (A) (A) (A) (A) (A) (A) (A) (A) (A) (A)
                 (A) (A) (A) (A) (A) (A) (A) (A) (A) (A) (A) (A)
                 (A) (A) (A) (A) (A) (A) (A) (A) (A) (A) (A) (A)
                 (A) (A) (A) (A) (A) (A) (A) (A) (A) (A) (A) (A)
                 (A) (A) (A) (A) (A) (A) (A) (A) (A) (A) (A) (A)
                 (A) (A) (A) (A) (A) (A) (A) (A) (A) (A) (A) (A)
                 (A) (A) (A) (A) (A) (A) (A) (A) (A) (A) (A) (A)
                 (A) (A) (A) (A) (A) (A) (A) (A) (A) (A) (A) (A)
                 (A) (A) (A) (A) (A) (A) (A) (A) (A) (A) (A) (A)
                 (A) (A) (A) (A) (A) (A) (A) (A) (A) (A) (A) (A)
                 (A) (A) (A) (A) (A) (A) (A) (A) (A) (A) (A) (A)
                 (A) (A) (A) (A) (A) (A) (A) (A) (A) (A) (A) (A)
                 (A) (A) (A) (A) (A) (A) (A) (A) (A) (A) (A) (A)
                 (A) (A) (A) (A) (A) (A) (A) (A) (A) (A) (A) (A)
                 (A) (A) (A) (A) (A) (A) (A) (A) (A) (A) (A) (A)
                 (A) (A) (A) (A) (A) (A) (A) (A) (A) (A) (A) (A)
                 (A) (A) (A) (A) (A) (A) (A) (A) (A) (A) (A) (A)
                 (A) (A) (A) (A) (A) (A) (A) (A) (A) (A) (A) (A)
                 (A) (A) (A) (A) (A) (A) (A) (A) (A) (A) (A) (A)
                 (A) (A) (A) (A) (A) (A) (A) (A) (A) (A) (A) (A)
                 (A) (A) (A) (A) (A) (A) (A) (A) (A) (A) (A) (A)
                 (A) (A) (A) (A) (A) (A) (A) (A) (A) (A) (A) (A)
                 (A) (A) (A) (A) (A) (A) (A) (A) (A) (A) (A) (A)
                 (A) (A) (A) (A) (A) (A) (A) (A) (A) (A) (A) (A)
                 (A) (A) (A) (A) (A) (A) (A) (A) (A) (A) (A) (A)
                 (A) (A) (A) (A) (A) (A) (A) (A) (A) (A) (A) (A)
                 (A) (A) (A) (A) (A) (A) (A) (A) (A) (A) (A) (A)
                 (A) (A) (A) (A) (A) (A) (A) (A) (A) (A) (A) (A)
                 (A) (A) (A) (A) (A) (A) (A) (A) (A) (A) (A) (A)
                 (A) (A) (A) (A) (A) (A) (A) (A) (A) (A) (A) (A)
                 (A) (A) (A) (A) (A) (A) (A) (A) (A) (A) (A) (A)
                 (A) (A) (A) (A) (A) (A) (A) (A) (A) (A) (A) (A)
                 (A) (A) (A) (A) (A) (A) (A) (A) (A) (A) (A) (A)
                 (A) (A) (A) (A) (A) (A) (A) (A) (A) (A) (A) (A)
                 (A) (A) (A) (A) (A) (A) (A) (A) (A) (A) (A) (A)
                 (A) (A) (A) (A) (A) (A) (A) (A) (A) (A) (A) (A)
                 (A) (A) (A) (A) (A) (A) (A) (A) (A) (A) (A) (A)
                 (A) (A) (A) (A) (A) (A) (A) (A) (A) (A) (A) (A)
                 (A) (A) (A) (A) (A) (A) (A) (A) (A) (A) (A) (A)
                 (A) (A) (A) (A) (A) (A) (A) (A) (A) (A) (A) (A)
                 (A) (A) (A) (A) (A) (A) (A) (A) (A) (A) (A) (A)
                 (A) (A) (A) (A) (A) (A) (A) (A) (A) (A) (A) (A)
                 (A) (A) (A) (A) (A) (A) (A) (A) (A) (A) (A) (A)
                 (A) (A) (A) (A) (A) (A) (A) (A) (A) (A) (A) (A)
                 (A) (A) (A) (A) (A) (A) (A) (A) (A) (A) (A) (A)
                 (A) (A) (A) (A) (A) (A) (A) (A) (A) (A) (A) (A)
                 (A) (A) (A) (A) (A) (A) (A) (A) (A) (A) (A) (A)
                 (A) (A) (A) (A) (A) (A) (A) (A) (A) (A) (A) (A)
                 (A) (A) (A) (A) (A) (A) (A) (A) (A) (A) (A) (A)
                 (A) (A) (A) (A) (A) (A) (A) (A) (A) (A) (A) (A)
                 (A) (A) (A) (A) (A) (A) (A) (A) (A) (A) (A) (A)
                 (A) (A) (A) (A) (A) (A) (A) (A) (A) (A) (A) (A)
                 (A) (A) (A) (A) (A) (A) (A) (A) (A) (A) (A) (A)
                 (A) (A) (A) (A) (A) (A) (A) (A) (A) (A) (A) (A)
                 (A) (A) (A) (A) (A) (A) (A) (A) (A) (A) (A) (A)
                 (A) (A) (A) (A) (A) (A) (A) (A) (A) (A) (A) (A)
                 (A) (A) (A) (A) (A) (A) (A) (A) (A) (A) (A) (A)
                 (A) (A) (A) (A) (A) (A) (A) (A) (A) (A) (A) (A)
                 (A) (A) (A) (A) (A) (A) (A) (A) (A) (A) (A) (A)
                 (A) (A) (A) (A) (A) (A) (A) (A) (A) (A) (A) (A)
                 (A) (A) (A) (A) (A) (A) (A) (A) (A) (A) (A) (A)
                 (A) (A) (A) (A) (A) (A) (A) (A) (A) (A) (A) (A)
                 (A) (A) (A) (A) (A) (A) (A) (A) (A) (A) (A) (A)
                 (A) (A) (A) (A) (A) (A) (A) (A) (A) (A) (A) (A)
                 (A) (A) (A) (A) (A) (A) (A) (A) (A) (A) (A) (A)
                 (A) (A)
 Beta  Orbitals:
       Occupied  (A) (A) (A) (A) (A) (A) (A) (A) (A) (A) (A) (A)
                 (A) (A) (A) (A) (A) (A) (A) (A) (A) (A) (A) (A)
                 (A) (A) (A) (A) (A) (A) (A) (A) (A) (A) (A) (A)
                 (A) (A) (A) (A) (A) (A) (A) (A) (A) (A) (A) (A)
                 (A) (A) (A) (A) (A) (A) (A) (A) (A) (A) (A) (A)
                 (A) (A) (A) (A) (A) (A) (A) (A) (A) (A) (A) (A)
                 (A) (A) (A) (A) (A) (A) (A) (A) (A) (A) (A) (A)
                 (A) (A) (A) (A) (A) (A) (A) (A) (A) (A) (A) (A)
                 (A) (A) (A) (A) (A) (A) (A) (A) (A) (A) (A) (A)
                 (A) (A) (A) (A) (A) (A) (A) (A) (A) (A) (A) (A)
                 (A) (A) (A) (A) (A) (A) (A) (A) (A) (A) (A) (A)
                 (A) (A) (A) (A) (A) (A) (A) (A) (A) (A) (A) (A)
                 (A) (A) (A) (A) (A) (A) (A) (A) (A) (A) (A) (A)
                 (A) (A) (A) (A) (A) (A) (A) (A) (A) (A) (A) (A)
                 (A) (A) (A) (A) (A) (A) (A) (A) (A) (A) (A) (A)
                 (A) (A) (A) (A) (A) (A) (A) (A) (A) (A) (A) (A)
                 (A) (A) (A) (A) (A) (A)
       Virtual   (A) (A) (A) (A) (A) (A) (A) (A) (A) (A) (A) (A)
                 (A) (A) (A) (A) (A) (A) (A) (A) (A) (A) (A) (A)
                 (A) (A) (A) (A) (A) (A) (A) (A) (A) (A) (A) (A)
                 (A) (A) (A) (A) (A) (A) (A) (A) (A) (A) (A) (A)
                 (A) (A) (A) (A) (A) (A) (A) (A) (A) (A) (A) (A)
                 (A) (A) (A) (A) (A) (A) (A) (A) (A) (A) (A) (A)
                 (A) (A) (A) (A) (A) (A) (A) (A) (A) (A) (A) (A)
                 (A) (A) (A) (A) (A) (A) (A) (A) (A) (A) (A) (A)
                 (A) (A) (A) (A) (A) (A) (A) (A) (A) (A) (A) (A)
                 (A) (A) (A) (A) (A) (A) (A) (A) (A) (A) (A) (A)
                 (A) (A) (A) (A) (A) (A) (A) (A) (A) (A) (A) (A)
                 (A) (A) (A) (A) (A) (A) (A) (A) (A) (A) (A) (A)
                 (A) (A) (A) (A) (A) (A) (A) (A) (A) (A) (A) (A)
                 (A) (A) (A) (A) (A) (A) (A) (A) (A) (A) (A) (A)
                 (A) (A) (A) (A) (A) (A) (A) (A) (A) (A) (A) (A)
                 (A) (A) (A) (A) (A) (A) (A) (A) (A) (A) (A) (A)
                 (A) (A) (A) (A) (A) (A) (A) (A) (A) (A) (A) (A)
                 (A) (A) (A) (A) (A) (A) (A) (A) (A) (A) (A) (A)
                 (A) (A) (A) (A) (A) (A) (A) (A) (A) (A) (A) (A)
                 (A) (A) (A) (A) (A) (A) (A) (A) (A) (A) (A) (A)
                 (A) (A) (A) (A) (A) (A) (A) (A) (A) (A) (A) (A)
                 (A) (A) (A) (A) (A) (A) (A) (A) (A) (A) (A) (A)
                 (A) (A) (A) (A) (A) (A) (A) (A) (A) (A) (A) (A)
                 (A) (A) (A) (A) (A) (A) (A) (A) (A) (A) (A) (A)
                 (A) (A) (A) (A) (A) (A) (A) (A) (A) (A) (A) (A)
                 (A) (A) (A) (A) (A) (A) (A) (A) (A) (A) (A) (A)
                 (A) (A) (A) (A) (A) (A) (A) (A) (A) (A) (A) (A)
                 (A) (A) (A) (A) (A) (A) (A) (A) (A) (A) (A) (A)
                 (A) (A) (A) (A) (A) (A) (A) (A) (A) (A) (A) (A)
                 (A) (A) (A) (A) (A) (A) (A) (A) (A) (A) (A) (A)
                 (A) (A) (A) (A) (A) (A) (A) (A) (A) (A) (A) (A)
                 (A) (A) (A) (A) (A) (A) (A) (A) (A) (A) (A) (A)
                 (A) (A) (A) (A) (A) (A) (A) (A) (A) (A) (A) (A)
                 (A) (A) (A) (A) (A) (A) (A) (A) (A) (A) (A) (A)
                 (A) (A) (A) (A) (A) (A) (A) (A) (A) (A) (A) (A)
                 (A) (A) (A) (A) (A) (A) (A) (A) (A) (A) (A) (A)
                 (A) (A) (A) (A) (A) (A) (A) (A) (A) (A) (A) (A)
                 (A) (A) (A) (A) (A) (A) (A) (A) (A) (A) (A) (A)
                 (A) (A) (A) (A) (A) (A) (A) (A) (A) (A) (A) (A)
                 (A) (A) (A) (A) (A) (A) (A) (A) (A) (A) (A) (A)
                 (A) (A) (A) (A) (A) (A) (A) (A) (A) (A) (A) (A)
                 (A) (A) (A) (A) (A) (A) (A) (A) (A) (A) (A) (A)
                 (A) (A) (A) (A) (A) (A) (A) (A) (A) (A) (A) (A)
                 (A) (A) (A) (A) (A) (A) (A) (A) (A) (A) (A) (A)
                 (A) (A) (A) (A) (A) (A) (A) (A) (A) (A) (A) (A)
                 (A) (A) (A) (A) (A) (A) (A) (A) (A) (A) (A) (A)
                 (A) (A) (A) (A) (A) (A) (A) (A) (A) (A) (A) (A)
                 (A) (A) (A) (A) (A) (A) (A) (A) (A) (A) (A) (A)
                 (A) (A) (A) (A) (A) (A) (A) (A) (A) (A) (A) (A)
                 (A) (A) (A) (A) (A) (A) (A) (A) (A) (A) (A) (A)
                 (A) (A) (A) (A) (A) (A) (A) (A) (A) (A) (A) (A)
                 (A) (A) (A) (A) (A) (A) (A) (A) (A) (A) (A) (A)
                 (A) (A) (A) (A) (A) (A) (A) (A) (A) (A) (A) (A)
                 (A) (A) (A) (A) (A) (A) (A) (A) (A) (A) (A) (A)
                 (A) (A) (A) (A) (A) (A) (A) (A) (A) (A) (A) (A)
                 (A) (A) (A) (A) (A) (A) (A) (A) (A) (A) (A) (A)
                 (A) (A) (A) (A) (A) (A) (A) (A) (A) (A) (A) (A)
                 (A) (A) (A) (A) (A) (A) (A) (A) (A) (A) (A) (A)
                 (A) (A) (A) (A) (A) (A) (A) (A) (A) (A) (A) (A)
                 (A) (A) (A) (A) (A) (A) (A) (A) (A) (A) (A) (A)
                 (A) (A) (A) (A) (A) (A) (A) (A) (A) (A) (A) (A)
                 (A) (A) (A) (A) (A) (A) (A) (A) (A) (A) (A) (A)
                 (A) (A) (A) (A) (A) (A) (A) (A) (A) (A) (A) (A)
                 (A) (A) (A) (A) (A) (A) (A) (A) (A) (A) (A) (A)
                 (A) (A) (A) (A) (A) (A) (A) (A) (A) (A) (A) (A)
                 (A) (A) (A) (A) (A) (A) (A) (A) (A) (A) (A) (A)
                 (A) (A) (A) (A) (A) (A) (A) (A) (A) (A) (A) (A)
                 (A) (A) (A) (A) (A) (A) (A) (A) (A) (A) (A) (A)
                 (A) (A) (A) (A) (A) (A) (A) (A) (A) (A) (A) (A)
                 (A) (A) (A) (A) (A) (A) (A) (A) (A) (A) (A) (A)
                 (A) (A) (A) (A) (A) (A) (A) (A) (A) (A) (A) (A)
                 (A) (A) (A) (A) (A) (A) (A) (A) (A) (A) (A) (A)
                 (A) (A) (A) (A) (A) (A) (A) (A) (A) (A) (A) (A)
                 (A) (A) (A) (A) (A) (A) (A) (A) (A) (A) (A) (A)
                 (A) (A) (A) (A) (A) (A) (A) (A) (A) (A) (A) (A)
                 (A) (A) (A) (A) (A) (A) (A) (A) (A) (A) (A) (A)
                 (A) (A) (A) (A) (A) (A) (A) (A) (A) (A) (A) (A)
                 (A) (A) (A) (A) (A) (A) (A) (A) (A) (A) (A) (A)
                 (A) (A) (A) (A) (A) (A) (A) (A) (A) (A) (A) (A)
                 (A) (A) (A) (A) (A) (A) (A) (A) (A) (A) (A) (A)
                 (A) (A) (A) (A) (A) (A) (A) (A) (A) (A) (A) (A)
                 (A) (A) (A) (A) (A) (A) (A) (A) (A) (A) (A) (A)
                 (A) (A) (A) (A) (A) (A) (A) (A) (A) (A) (A) (A)
                 (A) (A) (A) (A) (A) (A) (A) (A) (A) (A) (A) (A)
                 (A) (A) (A) (A) (A) (A) (A) (A) (A) (A) (A) (A)
                 (A) (A) (A) (A) (A) (A) (A) (A) (A) (A) (A) (A)
                 (A) (A) (A) (A) (A) (A) (A) (A) (A) (A) (A) (A)
                 (A) (A) (A) (A) (A) (A) (A) (A) (A) (A) (A) (A)
                 (A) (A) (A) (A) (A) (A) (A) (A) (A) (A) (A) (A)
                 (A) (A) (A) (A) (A) (A) (A) (A) (A) (A) (A) (A)
                 (A) (A) (A) (A) (A) (A) (A) (A) (A) (A) (A) (A)
                 (A) (A) (A) (A) (A) (A) (A) (A) (A) (A) (A) (A)
                 (A) (A) (A) (A) (A) (A) (A) (A) (A) (A) (A) (A)
                 (A) (A) (A) (A) (A) (A) (A) (A) (A) (A) (A) (A)
                 (A) (A) (A) (A) (A) (A) (A) (A) (A) (A) (A) (A)
                 (A) (A) (A) (A) (A) (A) (A) (A) (A) (A) (A) (A)
                 (A) (A) (A) (A) (A) (A) (A) (A) (A) (A) (A) (A)
                 (A) (A) (A) (A) (A) (A) (A) (A) (A) (A) (A) (A)
                 (A) (A) (A) (A) (A) (A) (A) (A) (A) (A) (A) (A)
                 (A) (A) (A) (A) (A) (A) (A) (A) (A) (A) (A) (A)
                 (A) (A) (A) (A) (A) (A) (A) (A) (A) (A) (A) (A)
                 (A) (A) (A) (A) (A) (A) (A) (A) (A) (A) (A) (A)
                 (A) (A) (A) (A) (A) (A) (A) (A) (A) (A) (A) (A)
                 (A) (A) (A) (A) (A) (A) (A) (A) (A) (A) (A) (A)
                 (A) (A) (A) (A) (A) (A) (A) (A) (A) (A) (A) (A)
                 (A) (A) (A) (A) (A) (A) (A) (A) (A) (A) (A) (A)
                 (A) (A) (A) (A) (A) (A) (A) (A) (A) (A) (A) (A)
                 (A) (A) (A) (A) (A) (A) (A) (A) (A) (A) (A) (A)
                 (A) (A) (A) (A) (A) (A) (A) (A) (A) (A) (A) (A)
                 (A) (A) (A) (A) (A) (A) (A) (A) (A) (A) (A) (A)
                 (A) (A) (A) (A) (A) (A) (A) (A) (A) (A) (A) (A)
                 (A) (A) (A) (A) (A) (A) (A) (A) (A) (A) (A) (A)
                 (A) (A) (A) (A) (A) (A) (A) (A) (A) (A) (A) (A)
                 (A) (A) (A) (A) (A) (A) (A) (A) (A) (A) (A) (A)
                 (A) (A) (A) (A) (A) (A) (A) (A) (A) (A) (A) (A)
                 (A) (A) (A) (A) (A) (A) (A) (A) (A) (A) (A) (A)
                 (A) (A) (A) (A) (A) (A) (A) (A) (A) (A) (A) (A)
                 (A) (A) (A) (A) (A) (A) (A) (A) (A) (A) (A) (A)
                 (A) (A) (A) (A) (A) (A) (A) (A) (A) (A) (A) (A)
                 (A) (A) (A) (A) (A) (A) (A) (A) (A) (A) (A) (A)
                 (A) (A) (A) (A) (A) (A) (A) (A) (A) (A) (A) (A)
                 (A) (A) (A) (A) (A) (A) (A) (A) (A) (A) (A) (A)
                 (A) (A) (A) (A) (A) (A) (A) (A) (A) (A) (A) (A)
                 (A) (A) (A) (A) (A) (A) (A) (A) (A) (A) (A) (A)
                 (A) (A) (A) (A) (A) (A) (A) (A) (A) (A) (A) (A)
                 (A) (A) (A) (A) (A) (A) (A) (A) (A) (A) (A) (A)
                 (A) (A) (A) (A) (A) (A) (A) (A) (A) (A) (A) (A)
                 (A) (A) (A) (A) (A) (A) (A) (A) (A) (A) (A) (A)
                 (A) (A) (A) (A) (A) (A) (A) (A) (A) (A) (A) (A)
                 (A) (A) (A) (A) (A) (A) (A) (A) (A) (A) (A) (A)
                 (A) (A) (A) (A) (A) (A) (A) (A) (A) (A) (A) (A)
                 (A) (A) (A) (A) (A) (A) (A) (A) (A) (A) (A) (A)
                 (A) (A) (A) (A) (A) (A) (A) (A) (A) (A) (A) (A)
                 (A) (A) (A) (A) (A) (A) (A) (A) (A) (A) (A) (A)
                 (A) (A) (A) (A) (A) (A) (A) (A) (A) (A) (A) (A)
                 (A) (A) (A) (A) (A) (A) (A) (A) (A) (A) (A) (A)
                 (A) (A) (A) (A) (A) (A) (A) (A) (A) (A) (A) (A)
                 (A) (A) (A)
 The electronic state is 2-A.
 Alpha  occ. eigenvalues -- -101.07868 -19.02286 -19.01289 -19.00145 -14.20737
 Alpha  occ. eigenvalues --  -14.20401 -14.18554 -14.16897 -10.15414 -10.14767
 Alpha  occ. eigenvalues --  -10.14040 -10.12225 -10.11207 -10.11148 -10.11054
 Alpha  occ. eigenvalues --  -10.10619 -10.10529 -10.10045 -10.09004 -10.08845
 Alpha  occ. eigenvalues --  -10.08567 -10.08098 -10.07902 -10.07849 -10.07804
 Alpha  occ. eigenvalues --  -10.07533 -10.07375 -10.07202 -10.07167 -10.07071
 Alpha  occ. eigenvalues --  -10.06608 -10.06560 -10.06478 -10.06441 -10.06409
 Alpha  occ. eigenvalues --  -10.06046 -10.05940 -10.05598 -10.05383 -10.05241
 Alpha  occ. eigenvalues --  -10.05009 -10.04951 -10.04900 -10.04576 -10.04484
 Alpha  occ. eigenvalues --  -10.04441 -10.04209 -10.04193 -10.03910  -9.30876
 Alpha  occ. eigenvalues --   -7.01267  -7.00999  -7.00978  -3.99851  -3.99331
 Alpha  occ. eigenvalues --   -2.59746  -2.59476  -2.59326  -2.58584  -2.56435
 Alpha  occ. eigenvalues --   -2.56359  -1.07426  -1.06326  -1.03758  -0.95240
 Alpha  occ. eigenvalues --   -0.90493  -0.88073  -0.87080  -0.82680  -0.81063
 Alpha  occ. eigenvalues --   -0.79891  -0.79252  -0.78769  -0.78478  -0.76055
 Alpha  occ. eigenvalues --   -0.75220  -0.74018  -0.73945  -0.72646  -0.71603
 Alpha  occ. eigenvalues --   -0.70819  -0.70223  -0.69092  -0.68646  -0.68224
 Alpha  occ. eigenvalues --   -0.65712  -0.65091  -0.64950  -0.64789  -0.64715
 Alpha  occ. eigenvalues --   -0.64390  -0.63059  -0.61507  -0.61058  -0.60463
 Alpha  occ. eigenvalues --   -0.58961  -0.57553  -0.57020  -0.56193  -0.56010
 Alpha  occ. eigenvalues --   -0.55698  -0.55330  -0.52274  -0.51080  -0.50607
 Alpha  occ. eigenvalues --   -0.50233  -0.49906  -0.49114  -0.48861  -0.48720
 Alpha  occ. eigenvalues --   -0.47982  -0.47032  -0.46558  -0.46078  -0.45351
 Alpha  occ. eigenvalues --   -0.45289  -0.44316  -0.43161  -0.42889  -0.42712
 Alpha  occ. eigenvalues --   -0.42688  -0.42483  -0.42272  -0.41905  -0.41793
 Alpha  occ. eigenvalues --   -0.41235  -0.40970  -0.40884  -0.40502  -0.40327
 Alpha  occ. eigenvalues --   -0.40104  -0.39846  -0.39640  -0.39500  -0.39163
 Alpha  occ. eigenvalues --   -0.38772  -0.38592  -0.38300  -0.37960  -0.37555
 Alpha  occ. eigenvalues --   -0.37503  -0.36823  -0.36308  -0.35878  -0.35572
 Alpha  occ. eigenvalues --   -0.35274  -0.35234  -0.34924  -0.34803  -0.34679
 Alpha  occ. eigenvalues --   -0.34404  -0.34362  -0.34034  -0.33832  -0.33697
 Alpha  occ. eigenvalues --   -0.33539  -0.33416  -0.33107  -0.33010  -0.32985
 Alpha  occ. eigenvalues --   -0.32352  -0.32163  -0.31963  -0.31706  -0.31622
 Alpha  occ. eigenvalues --   -0.31170  -0.30971  -0.30327  -0.30207  -0.30088
 Alpha  occ. eigenvalues --   -0.30001  -0.29562  -0.29388  -0.29226  -0.28992
 Alpha  occ. eigenvalues --   -0.27881  -0.27205  -0.26751  -0.26185  -0.25982
 Alpha  occ. eigenvalues --   -0.25248  -0.24495  -0.23940  -0.23735  -0.23518
 Alpha  occ. eigenvalues --   -0.23215  -0.22994  -0.22447  -0.22238  -0.21700
 Alpha  occ. eigenvalues --   -0.20804  -0.20568  -0.20466  -0.19640  -0.19376
 Alpha  occ. eigenvalues --   -0.18591  -0.17117  -0.15634  -0.13735
 Alpha virt. eigenvalues --   -0.11249  -0.09347  -0.08892  -0.07144  -0.04880
 Alpha virt. eigenvalues --   -0.04496  -0.04057  -0.03528  -0.03338  -0.03099
 Alpha virt. eigenvalues --    0.00740   0.01197   0.01653   0.01782   0.02414
 Alpha virt. eigenvalues --    0.02688   0.03444   0.03701   0.03906   0.04264
 Alpha virt. eigenvalues --    0.05053   0.05177   0.05322   0.05696   0.05896
 Alpha virt. eigenvalues --    0.06205   0.06358   0.06627   0.06794   0.07025
 Alpha virt. eigenvalues --    0.07160   0.07433   0.07940   0.08150   0.08302
 Alpha virt. eigenvalues --    0.08451   0.08723   0.08892   0.09221   0.09451
 Alpha virt. eigenvalues --    0.09756   0.10104   0.10146   0.10231   0.10336
 Alpha virt. eigenvalues --    0.10652   0.11025   0.11097   0.11296   0.11501
 Alpha virt. eigenvalues --    0.11575   0.11874   0.12210   0.12387   0.12617
 Alpha virt. eigenvalues --    0.12671   0.12736   0.12990   0.13065   0.13213
 Alpha virt. eigenvalues --    0.13421   0.13455   0.13803   0.14001   0.14163
 Alpha virt. eigenvalues --    0.14453   0.14700   0.14857   0.15117   0.15357
 Alpha virt. eigenvalues --    0.15815   0.15982   0.16058   0.16303   0.16368
 Alpha virt. eigenvalues --    0.16497   0.16760   0.17070   0.17291   0.17453
 Alpha virt. eigenvalues --    0.17595   0.17869   0.18067   0.18111   0.18431
 Alpha virt. eigenvalues --    0.18546   0.18828   0.19129   0.19419   0.19728
 Alpha virt. eigenvalues --    0.19886   0.20221   0.20455   0.20582   0.20678
 Alpha virt. eigenvalues --    0.21219   0.21283   0.21703   0.21868   0.21944
 Alpha virt. eigenvalues --    0.22261   0.22386   0.22637   0.22658   0.22911
 Alpha virt. eigenvalues --    0.22995   0.23259   0.23456   0.23729   0.23893
 Alpha virt. eigenvalues --    0.23981   0.24039   0.24313   0.24351   0.24481
 Alpha virt. eigenvalues --    0.24773   0.25046   0.25189   0.25338   0.25566
 Alpha virt. eigenvalues --    0.25926   0.26195   0.26381   0.26509   0.26594
 Alpha virt. eigenvalues --    0.26957   0.26993   0.27235   0.27481   0.27542
 Alpha virt. eigenvalues --    0.27713   0.27832   0.28014   0.28425   0.28678
 Alpha virt. eigenvalues --    0.28796   0.28954   0.29379   0.29398   0.29672
 Alpha virt. eigenvalues --    0.29891   0.30047   0.30094   0.30245   0.30649
 Alpha virt. eigenvalues --    0.30701   0.30806   0.31151   0.31249   0.31548
 Alpha virt. eigenvalues --    0.31604   0.31838   0.32079   0.32268   0.32478
 Alpha virt. eigenvalues --    0.32826   0.32957   0.33157   0.33198   0.33512
 Alpha virt. eigenvalues --    0.33922   0.33987   0.34083   0.34439   0.34500
 Alpha virt. eigenvalues --    0.34647   0.34895   0.35041   0.35330   0.35383
 Alpha virt. eigenvalues --    0.35533   0.35712   0.35886   0.35983   0.36212
 Alpha virt. eigenvalues --    0.36306   0.36619   0.36699   0.36822   0.36999
 Alpha virt. eigenvalues --    0.37128   0.37379   0.37540   0.37787   0.37909
 Alpha virt. eigenvalues --    0.38125   0.38283   0.38362   0.38676   0.38899
 Alpha virt. eigenvalues --    0.39008   0.39181   0.39463   0.39506   0.39742
 Alpha virt. eigenvalues --    0.39852   0.39967   0.40119   0.40332   0.40607
 Alpha virt. eigenvalues --    0.40712   0.40780   0.40960   0.41329   0.41399
 Alpha virt. eigenvalues --    0.41585   0.41704   0.41967   0.42164   0.42429
 Alpha virt. eigenvalues --    0.42529   0.42589   0.42871   0.43102   0.43221
 Alpha virt. eigenvalues --    0.43417   0.43508   0.43585   0.43669   0.43715
 Alpha virt. eigenvalues --    0.43937   0.44046   0.44165   0.44450   0.44614
 Alpha virt. eigenvalues --    0.44816   0.44923   0.45144   0.45197   0.45330
 Alpha virt. eigenvalues --    0.45518   0.45854   0.45985   0.46204   0.46239
 Alpha virt. eigenvalues --    0.46326   0.46371   0.46677   0.46845   0.47062
 Alpha virt. eigenvalues --    0.47183   0.47337   0.47698   0.47864   0.47981
 Alpha virt. eigenvalues --    0.48112   0.48393   0.48703   0.48997   0.49093
 Alpha virt. eigenvalues --    0.49224   0.49556   0.49752   0.50127   0.50395
 Alpha virt. eigenvalues --    0.50468   0.50602   0.50847   0.51411   0.51771
 Alpha virt. eigenvalues --    0.51991   0.52143   0.52322   0.52612   0.52810
 Alpha virt. eigenvalues --    0.53195   0.53433   0.53477   0.53941   0.54022
 Alpha virt. eigenvalues --    0.54282   0.54797   0.55265   0.55325   0.55620
 Alpha virt. eigenvalues --    0.55748   0.55883   0.56238   0.56566   0.56734
 Alpha virt. eigenvalues --    0.57119   0.57142   0.57700   0.57831   0.58401
 Alpha virt. eigenvalues --    0.58482   0.58759   0.58976   0.59160   0.59478
 Alpha virt. eigenvalues --    0.59756   0.59834   0.60274   0.60473   0.61009
 Alpha virt. eigenvalues --    0.61190   0.61540   0.61800   0.62007   0.62302
 Alpha virt. eigenvalues --    0.62408   0.62930   0.63067   0.63402   0.63558
 Alpha virt. eigenvalues --    0.63932   0.64303   0.64464   0.64620   0.64714
 Alpha virt. eigenvalues --    0.64770   0.65192   0.65366   0.65657   0.65842
 Alpha virt. eigenvalues --    0.66181   0.66269   0.66613   0.66773   0.67048
 Alpha virt. eigenvalues --    0.67196   0.67823   0.67927   0.68336   0.68546
 Alpha virt. eigenvalues --    0.68713   0.68955   0.69132   0.69469   0.69837
 Alpha virt. eigenvalues --    0.69963   0.70137   0.70314   0.70537   0.70904
 Alpha virt. eigenvalues --    0.71162   0.71527   0.71711   0.71932   0.72215
 Alpha virt. eigenvalues --    0.72574   0.72712   0.72844   0.73036   0.73575
 Alpha virt. eigenvalues --    0.73761   0.74081   0.74207   0.74420   0.74829
 Alpha virt. eigenvalues --    0.75262   0.75465   0.75719   0.75875   0.76106
 Alpha virt. eigenvalues --    0.76458   0.76758   0.77067   0.77356   0.77520
 Alpha virt. eigenvalues --    0.77769   0.77966   0.78287   0.78827   0.78928
 Alpha virt. eigenvalues --    0.79573   0.79643   0.80008   0.80367   0.80493
 Alpha virt. eigenvalues --    0.80859   0.81121   0.81403   0.81567   0.82064
 Alpha virt. eigenvalues --    0.82353   0.82703   0.82839   0.83128   0.83436
 Alpha virt. eigenvalues --    0.83558   0.83936   0.84228   0.84394   0.84912
 Alpha virt. eigenvalues --    0.85029   0.85570   0.85587   0.85887   0.86175
 Alpha virt. eigenvalues --    0.86306   0.86472   0.86980   0.87145   0.87418
 Alpha virt. eigenvalues --    0.87725   0.88009   0.88321   0.88632   0.88829
 Alpha virt. eigenvalues --    0.89351   0.89405   0.89793   0.90214   0.90543
 Alpha virt. eigenvalues --    0.90833   0.91258   0.91331   0.91527   0.91756
 Alpha virt. eigenvalues --    0.91927   0.92263   0.92782   0.93119   0.93775
 Alpha virt. eigenvalues --    0.94081   0.94312   0.94657   0.94770   0.95013
 Alpha virt. eigenvalues --    0.95675   0.96004   0.96439   0.96818   0.97400
 Alpha virt. eigenvalues --    0.97654   0.97851   0.98351   0.98821   0.99102
 Alpha virt. eigenvalues --    0.99331   0.99736   1.00415   1.00653   1.01148
 Alpha virt. eigenvalues --    1.01247   1.01748   1.02354   1.02532   1.02879
 Alpha virt. eigenvalues --    1.03093   1.03261   1.03541   1.04438   1.04565
 Alpha virt. eigenvalues --    1.04631   1.05252   1.05334   1.05604   1.06076
 Alpha virt. eigenvalues --    1.06176   1.06510   1.07065   1.07449   1.07569
 Alpha virt. eigenvalues --    1.07836   1.08360   1.08483   1.08968   1.09189
 Alpha virt. eigenvalues --    1.09370   1.09506   1.09676   1.10186   1.10607
 Alpha virt. eigenvalues --    1.11213   1.11342   1.11539   1.12173   1.12415
 Alpha virt. eigenvalues --    1.12620   1.12856   1.13142   1.13640   1.13763
 Alpha virt. eigenvalues --    1.14194   1.14474   1.14602   1.15027   1.15230
 Alpha virt. eigenvalues --    1.15268   1.16002   1.16153   1.16494   1.16781
 Alpha virt. eigenvalues --    1.17099   1.17230   1.17837   1.18046   1.18447
 Alpha virt. eigenvalues --    1.18697   1.19181   1.19425   1.19683   1.19885
 Alpha virt. eigenvalues --    1.20278   1.20595   1.20940   1.21218   1.21627
 Alpha virt. eigenvalues --    1.21674   1.22354   1.22815   1.23037   1.23531
 Alpha virt. eigenvalues --    1.23572   1.24093   1.24230   1.24552   1.24812
 Alpha virt. eigenvalues --    1.25207   1.25427   1.25510   1.25784   1.26331
 Alpha virt. eigenvalues --    1.26603   1.26957   1.27451   1.27626   1.28044
 Alpha virt. eigenvalues --    1.28437   1.28699   1.28960   1.29061   1.29741
 Alpha virt. eigenvalues --    1.29871   1.30414   1.31107   1.31322   1.31421
 Alpha virt. eigenvalues --    1.32171   1.32364   1.32858   1.32942   1.33562
 Alpha virt. eigenvalues --    1.34166   1.34588   1.34709   1.35127   1.35505
 Alpha virt. eigenvalues --    1.35753   1.36442   1.36830   1.37069   1.37466
 Alpha virt. eigenvalues --    1.38022   1.38575   1.39106   1.39222   1.39597
 Alpha virt. eigenvalues --    1.40398   1.40741   1.41266   1.41609   1.41715
 Alpha virt. eigenvalues --    1.42342   1.42812   1.43169   1.43404   1.43902
 Alpha virt. eigenvalues --    1.44231   1.44508   1.44870   1.45437   1.45598
 Alpha virt. eigenvalues --    1.46374   1.46490   1.46813   1.46987   1.47309
 Alpha virt. eigenvalues --    1.47425   1.47735   1.48440   1.48951   1.49007
 Alpha virt. eigenvalues --    1.49158   1.49509   1.49761   1.49920   1.50397
 Alpha virt. eigenvalues --    1.50510   1.50821   1.51413   1.51860   1.51908
 Alpha virt. eigenvalues --    1.52395   1.52701   1.53516   1.53717   1.53843
 Alpha virt. eigenvalues --    1.54244   1.54515   1.54869   1.55165   1.55316
 Alpha virt. eigenvalues --    1.55689   1.55703   1.56340   1.56485   1.56885
 Alpha virt. eigenvalues --    1.57140   1.57530   1.57643   1.57699   1.58074
 Alpha virt. eigenvalues --    1.58440   1.58594   1.58740   1.59015   1.59497
 Alpha virt. eigenvalues --    1.59568   1.59873   1.60164   1.60469   1.60755
 Alpha virt. eigenvalues --    1.61061   1.61365   1.61541   1.61709   1.61917
 Alpha virt. eigenvalues --    1.62150   1.62317   1.62520   1.62853   1.63075
 Alpha virt. eigenvalues --    1.63146   1.63385   1.63666   1.64000   1.64220
 Alpha virt. eigenvalues --    1.64820   1.64927   1.65366   1.65555   1.65794
 Alpha virt. eigenvalues --    1.66411   1.66815   1.66944   1.67225   1.67508
 Alpha virt. eigenvalues --    1.67744   1.67905   1.68309   1.68690   1.68944
 Alpha virt. eigenvalues --    1.69173   1.69256   1.69887   1.70075   1.70367
 Alpha virt. eigenvalues --    1.70553   1.70884   1.71400   1.72047   1.72087
 Alpha virt. eigenvalues --    1.72341   1.72879   1.73399   1.73527   1.73866
 Alpha virt. eigenvalues --    1.74111   1.74546   1.74868   1.75259   1.75517
 Alpha virt. eigenvalues --    1.76297   1.76756   1.76864   1.77172   1.78028
 Alpha virt. eigenvalues --    1.78604   1.78781   1.79240   1.79312   1.79715
 Alpha virt. eigenvalues --    1.80312   1.80802   1.80932   1.81086   1.81526
 Alpha virt. eigenvalues --    1.82205   1.82734   1.83638   1.84086   1.84258
 Alpha virt. eigenvalues --    1.84510   1.85044   1.85286   1.85390   1.85913
 Alpha virt. eigenvalues --    1.86210   1.86884   1.87430   1.87526   1.88064
 Alpha virt. eigenvalues --    1.88560   1.89015   1.89307   1.89547   1.89817
 Alpha virt. eigenvalues --    1.90075   1.90623   1.90993   1.91359   1.91681
 Alpha virt. eigenvalues --    1.92359   1.92540   1.92943   1.93158   1.93382
 Alpha virt. eigenvalues --    1.93907   1.94127   1.94261   1.94579   1.94732
 Alpha virt. eigenvalues --    1.95038   1.95488   1.95620   1.96061   1.96277
 Alpha virt. eigenvalues --    1.96624   1.97356   1.97526   1.97882   1.98151
 Alpha virt. eigenvalues --    1.98561   1.99047   1.99585   1.99696   1.99770
 Alpha virt. eigenvalues --    1.99902   2.00719   2.00942   2.01708   2.01991
 Alpha virt. eigenvalues --    2.02161   2.02632   2.02819   2.03494   2.03818
 Alpha virt. eigenvalues --    2.04030   2.04185   2.04519   2.05120   2.05538
 Alpha virt. eigenvalues --    2.05895   2.06096   2.06521   2.06953   2.07281
 Alpha virt. eigenvalues --    2.07594   2.07832   2.08307   2.08509   2.08864
 Alpha virt. eigenvalues --    2.09187   2.09661   2.10045   2.10430   2.10868
 Alpha virt. eigenvalues --    2.10994   2.11414   2.11588   2.11822   2.12307
 Alpha virt. eigenvalues --    2.12705   2.12926   2.13712   2.14228   2.14414
 Alpha virt. eigenvalues --    2.14835   2.15394   2.15792   2.16008   2.16411
 Alpha virt. eigenvalues --    2.17047   2.17611   2.17936   2.18289   2.18797
 Alpha virt. eigenvalues --    2.18928   2.19255   2.19597   2.19747   2.20090
 Alpha virt. eigenvalues --    2.20263   2.20712   2.20778   2.21636   2.21922
 Alpha virt. eigenvalues --    2.22117   2.22509   2.22824   2.23039   2.23358
 Alpha virt. eigenvalues --    2.23881   2.23993   2.24234   2.24455   2.24655
 Alpha virt. eigenvalues --    2.25205   2.25875   2.26184   2.26290   2.26670
 Alpha virt. eigenvalues --    2.27183   2.27544   2.27982   2.28356   2.28748
 Alpha virt. eigenvalues --    2.29043   2.29441   2.30207   2.30431   2.30928
 Alpha virt. eigenvalues --    2.31271   2.31661   2.32018   2.32369   2.32573
 Alpha virt. eigenvalues --    2.33291   2.33477   2.33568   2.33982   2.34279
 Alpha virt. eigenvalues --    2.34308   2.34684   2.35058   2.35359   2.35942
 Alpha virt. eigenvalues --    2.36481   2.36616   2.37136   2.37560   2.37933
 Alpha virt. eigenvalues --    2.38151   2.38519   2.39042   2.39376   2.39827
 Alpha virt. eigenvalues --    2.40116   2.40309   2.40759   2.40866   2.41364
 Alpha virt. eigenvalues --    2.41554   2.42110   2.42372   2.43095   2.43579
 Alpha virt. eigenvalues --    2.43750   2.44258   2.44304   2.44620   2.45255
 Alpha virt. eigenvalues --    2.45463   2.46004   2.46998   2.47573   2.47647
 Alpha virt. eigenvalues --    2.48282   2.48552   2.48854   2.48990   2.49259
 Alpha virt. eigenvalues --    2.49644   2.50204   2.50548   2.50963   2.51439
 Alpha virt. eigenvalues --    2.51730   2.51865   2.52315   2.52639   2.53253
 Alpha virt. eigenvalues --    2.53672   2.53972   2.54130   2.54396   2.54743
 Alpha virt. eigenvalues --    2.55091   2.55134   2.55929   2.56323   2.56501
 Alpha virt. eigenvalues --    2.56700   2.57134   2.57397   2.57782   2.58110
 Alpha virt. eigenvalues --    2.58418   2.58551   2.58988   2.59204   2.59582
 Alpha virt. eigenvalues --    2.59650   2.59818   2.60038   2.60347   2.60798
 Alpha virt. eigenvalues --    2.60900   2.61119   2.61551   2.62154   2.62488
 Alpha virt. eigenvalues --    2.62691   2.62977   2.63084   2.63368   2.63817
 Alpha virt. eigenvalues --    2.63948   2.64076   2.64569   2.64940   2.65359
 Alpha virt. eigenvalues --    2.65653   2.66011   2.66059   2.66312   2.66424
 Alpha virt. eigenvalues --    2.66779   2.67109   2.67360   2.67905   2.68055
 Alpha virt. eigenvalues --    2.68584   2.68779   2.69056   2.69341   2.69511
 Alpha virt. eigenvalues --    2.69694   2.70044   2.70412   2.70828   2.71009
 Alpha virt. eigenvalues --    2.71165   2.71659   2.71920   2.72370   2.72894
 Alpha virt. eigenvalues --    2.73064   2.73196   2.73600   2.73863   2.74086
 Alpha virt. eigenvalues --    2.74403   2.74549   2.74923   2.75158   2.75855
 Alpha virt. eigenvalues --    2.75885   2.76447   2.76694   2.77000   2.77350
 Alpha virt. eigenvalues --    2.77545   2.77857   2.78080   2.78440   2.78721
 Alpha virt. eigenvalues --    2.79071   2.79455   2.79793   2.80093   2.80547
 Alpha virt. eigenvalues --    2.80602   2.80800   2.81339   2.81612   2.82005
 Alpha virt. eigenvalues --    2.82190   2.82689   2.82853   2.83331   2.83742
 Alpha virt. eigenvalues --    2.83905   2.84144   2.84755   2.84878   2.85127
 Alpha virt. eigenvalues --    2.85394   2.85627   2.85877   2.86566   2.86671
 Alpha virt. eigenvalues --    2.87045   2.87393   2.87880   2.87958   2.88016
 Alpha virt. eigenvalues --    2.88396   2.88787   2.89388   2.89562   2.89814
 Alpha virt. eigenvalues --    2.89990   2.90361   2.90642   2.90826   2.91012
 Alpha virt. eigenvalues --    2.91321   2.91519   2.91799   2.92087   2.92411
 Alpha virt. eigenvalues --    2.92661   2.92714   2.92973   2.93426   2.93691
 Alpha virt. eigenvalues --    2.94267   2.94514   2.94854   2.94926   2.95480
 Alpha virt. eigenvalues --    2.95897   2.96507   2.96837   2.97235   2.97676
 Alpha virt. eigenvalues --    2.98145   2.98398   2.98926   2.99376   2.99613
 Alpha virt. eigenvalues --    2.99911   3.00231   3.00356   3.00921   3.01438
 Alpha virt. eigenvalues --    3.01932   3.02343   3.02632   3.03030   3.03390
 Alpha virt. eigenvalues --    3.03565   3.04001   3.04249   3.04639   3.05592
 Alpha virt. eigenvalues --    3.05879   3.06054   3.06942   3.07111   3.07221
 Alpha virt. eigenvalues --    3.07703   3.07929   3.08389   3.08595   3.08830
 Alpha virt. eigenvalues --    3.09502   3.09541   3.09717   3.10058   3.10926
 Alpha virt. eigenvalues --    3.10966   3.11503   3.11762   3.12002   3.12079
 Alpha virt. eigenvalues --    3.12456   3.12641   3.13099   3.13893   3.14028
 Alpha virt. eigenvalues --    3.14224   3.14571   3.14935   3.15215   3.15805
 Alpha virt. eigenvalues --    3.16098   3.16409   3.16652   3.17033   3.17392
 Alpha virt. eigenvalues --    3.17747   3.17929   3.18056   3.18320   3.18809
 Alpha virt. eigenvalues --    3.19159   3.19568   3.19704   3.19882   3.20196
 Alpha virt. eigenvalues --    3.20613   3.20828   3.21083   3.21598   3.21746
 Alpha virt. eigenvalues --    3.22160   3.22432   3.22530   3.22937   3.23209
 Alpha virt. eigenvalues --    3.23224   3.23519   3.23796   3.24275   3.24477
 Alpha virt. eigenvalues --    3.24843   3.25112   3.25196   3.25873   3.25993
 Alpha virt. eigenvalues --    3.26173   3.26385   3.26675   3.26818   3.27061
 Alpha virt. eigenvalues --    3.27255   3.27793   3.28049   3.28274   3.28359
 Alpha virt. eigenvalues --    3.28894   3.29188   3.29571   3.29795   3.30165
 Alpha virt. eigenvalues --    3.30504   3.30611   3.30887   3.31236   3.31255
 Alpha virt. eigenvalues --    3.31822   3.32225   3.32353   3.32538   3.32975
 Alpha virt. eigenvalues --    3.33021   3.33445   3.33571   3.33740   3.34020
 Alpha virt. eigenvalues --    3.34315   3.34736   3.34914   3.35238   3.35391
 Alpha virt. eigenvalues --    3.35620   3.35908   3.36101   3.36716   3.36869
 Alpha virt. eigenvalues --    3.37070   3.37216   3.37446   3.37919   3.38243
 Alpha virt. eigenvalues --    3.38355   3.38500   3.38680   3.38994   3.39303
 Alpha virt. eigenvalues --    3.39664   3.39866   3.40079   3.40433   3.40687
 Alpha virt. eigenvalues --    3.40887   3.41204   3.41528   3.41635   3.41960
 Alpha virt. eigenvalues --    3.42181   3.42621   3.42784   3.43036   3.43268
 Alpha virt. eigenvalues --    3.43427   3.43495   3.44057   3.44103   3.44377
 Alpha virt. eigenvalues --    3.44465   3.44759   3.45043   3.45722   3.45806
 Alpha virt. eigenvalues --    3.46015   3.46056   3.46172   3.46586   3.47039
 Alpha virt. eigenvalues --    3.47540   3.47663   3.48025   3.48306   3.48777
 Alpha virt. eigenvalues --    3.48890   3.49091   3.49177   3.49607   3.49743
 Alpha virt. eigenvalues --    3.50243   3.50572   3.51067   3.51130   3.51237
 Alpha virt. eigenvalues --    3.51486   3.51761   3.52089   3.52423   3.52801
 Alpha virt. eigenvalues --    3.53183   3.53376   3.53747   3.54172   3.54526
 Alpha virt. eigenvalues --    3.54718   3.54932   3.55578   3.55903   3.56100
 Alpha virt. eigenvalues --    3.56463   3.56757   3.57109   3.57411   3.57790
 Alpha virt. eigenvalues --    3.57963   3.58141   3.58549   3.58707   3.59163
 Alpha virt. eigenvalues --    3.59306   3.59719   3.60505   3.60666   3.60796
 Alpha virt. eigenvalues --    3.60935   3.61660   3.61973   3.62535   3.62717
 Alpha virt. eigenvalues --    3.63146   3.63237   3.64009   3.64420   3.64785
 Alpha virt. eigenvalues --    3.65213   3.65929   3.66461   3.67207   3.67374
 Alpha virt. eigenvalues --    3.67452   3.68374   3.68391   3.68817   3.68894
 Alpha virt. eigenvalues --    3.69799   3.70301   3.70794   3.71092   3.71827
 Alpha virt. eigenvalues --    3.72191   3.72268   3.72462   3.72786   3.73214
 Alpha virt. eigenvalues --    3.73720   3.74027   3.74593   3.74933   3.75450
 Alpha virt. eigenvalues --    3.75790   3.76741   3.76929   3.77270   3.77407
 Alpha virt. eigenvalues --    3.77802   3.78547   3.78675   3.79858   3.80280
 Alpha virt. eigenvalues --    3.80541   3.80949   3.81381   3.81975   3.82255
 Alpha virt. eigenvalues --    3.82446   3.83120   3.83189   3.83390   3.84672
 Alpha virt. eigenvalues --    3.84848   3.85115   3.85667   3.85955   3.86773
 Alpha virt. eigenvalues --    3.87053   3.87402   3.87753   3.87900   3.88566
 Alpha virt. eigenvalues --    3.89040   3.90067   3.90292   3.90660   3.91736
 Alpha virt. eigenvalues --    3.92723   3.93637   3.94308   3.94508   3.94877
 Alpha virt. eigenvalues --    3.95727   3.96069   3.96800   3.97304   3.97587
 Alpha virt. eigenvalues --    3.98392   3.98879   3.99252   4.00157   4.00454
 Alpha virt. eigenvalues --    4.01115   4.01250   4.02185   4.02322   4.02981
 Alpha virt. eigenvalues --    4.03766   4.04086   4.04375   4.04937   4.05460
 Alpha virt. eigenvalues --    4.06306   4.06897   4.06965   4.07458   4.07815
 Alpha virt. eigenvalues --    4.08015   4.09266   4.09807   4.10631   4.11202
 Alpha virt. eigenvalues --    4.12132   4.12781   4.13303   4.13880   4.14110
 Alpha virt. eigenvalues --    4.14352   4.14764   4.14940   4.15550   4.15770
 Alpha virt. eigenvalues --    4.16009   4.16198   4.16670   4.16760   4.17416
 Alpha virt. eigenvalues --    4.17756   4.18375   4.18634   4.19316   4.19878
 Alpha virt. eigenvalues --    4.20174   4.20434   4.20535   4.21223   4.21474
 Alpha virt. eigenvalues --    4.21923   4.22576   4.22820   4.23284   4.23370
 Alpha virt. eigenvalues --    4.23732   4.24426   4.24527   4.25116   4.25580
 Alpha virt. eigenvalues --    4.25927   4.26678   4.26993   4.27521   4.27696
 Alpha virt. eigenvalues --    4.27934   4.28478   4.28757   4.29400   4.29844
 Alpha virt. eigenvalues --    4.30608   4.31438   4.31630   4.31937   4.32449
 Alpha virt. eigenvalues --    4.32725   4.33334   4.33935   4.34254   4.34370
 Alpha virt. eigenvalues --    4.34753   4.34941   4.35927   4.36331   4.36705
 Alpha virt. eigenvalues --    4.36831   4.37739   4.37747   4.39185   4.39498
 Alpha virt. eigenvalues --    4.39744   4.40180   4.41103   4.41640   4.42439
 Alpha virt. eigenvalues --    4.43293   4.43467   4.44030   4.44362   4.45392
 Alpha virt. eigenvalues --    4.45790   4.46149   4.46768   4.47184   4.47886
 Alpha virt. eigenvalues --    4.48542   4.49304   4.50299   4.50806   4.50924
 Alpha virt. eigenvalues --    4.51185   4.51665   4.52773   4.53510   4.54274
 Alpha virt. eigenvalues --    4.54650   4.55434   4.56125   4.56746   4.57282
 Alpha virt. eigenvalues --    4.58183   4.58413   4.59371   4.60044   4.61541
 Alpha virt. eigenvalues --    4.61679   4.62625   4.64493   4.64928   4.66222
 Alpha virt. eigenvalues --    4.67329   4.69838   4.70410   4.71015   4.73731
 Alpha virt. eigenvalues --    4.74335   4.74880   4.75340   4.75991   4.76253
 Alpha virt. eigenvalues --    4.76894   4.77377   4.77822   4.77922   4.78254
 Alpha virt. eigenvalues --    4.78826   4.79829   4.81920   4.82624   4.83284
 Alpha virt. eigenvalues --    4.84476   4.85072   4.85541   4.87019   4.87761
 Alpha virt. eigenvalues --    4.88763   4.89711   4.91550   4.92055   4.93680
 Alpha virt. eigenvalues --    4.94584   4.96013   4.96287   4.97234   4.98123
 Alpha virt. eigenvalues --    4.98558   4.99790   5.01084   5.03007   5.03553
 Alpha virt. eigenvalues --    5.04112   5.05886   5.06902   5.07102   5.07967
 Alpha virt. eigenvalues --    5.08266   5.09823   5.10707   5.11252   5.11937
 Alpha virt. eigenvalues --    5.13761   5.14383   5.14760   5.15025   5.16070
 Alpha virt. eigenvalues --    5.16536   5.17943   5.18946   5.19699   5.20772
[...]
    35 H(1)   Bbb    -0.0005    -0.290    -0.104    -0.097  0.2180 -0.4130  0.8842
              Bcc     0.0014     0.720     0.257     0.240 -0.6203  0.6408  0.4523
 
              Baa    -0.0008    -0.421    -0.150    -0.140  0.4069  0.8795  0.2467
    36 H(1)   Bbb    -0.0006    -0.301    -0.107    -0.100  0.2005 -0.3495  0.9152
              Bcc     0.0014     0.722     0.258     0.241  0.8912 -0.3230 -0.3186
 
              Baa    -0.0023    -0.303    -0.108    -0.101  0.5763 -0.3714  0.7280
    37 C(13)  Bbb    -0.0014    -0.188    -0.067    -0.063  0.6376  0.7615 -0.1163
              Bcc     0.0037     0.491     0.175     0.164 -0.5112  0.5312  0.6757
 
              Baa    -0.0013    -0.672    -0.240    -0.224  0.2469  0.8908 -0.3816
    38 H(1)   Bbb    -0.0007    -0.379    -0.135    -0.126  0.8824 -0.0439  0.4684
              Bcc     0.0020     1.052     0.375     0.351 -0.4004  0.4523  0.7969
 
              Baa    -0.0035    -0.466    -0.166    -0.155 -0.2699  0.8208  0.5035
    39 C(13)  Bbb    -0.0022    -0.297    -0.106    -0.099 -0.1141 -0.5465  0.8297
              Bcc     0.0057     0.763     0.272     0.254  0.9561  0.1665  0.2412
 
              Baa    -0.0023    -1.202    -0.429    -0.401  0.4881  0.7913 -0.3682
    40 H(1)   Bbb    -0.0018    -0.986    -0.352    -0.329 -0.3449  0.5624  0.7515
              Bcc     0.0041     2.188     0.781     0.730  0.8017 -0.2398  0.5475
 
              Baa    -0.0178     1.289     0.460     0.430  0.0226 -0.0766  0.9968
    41 O(17)  Bbb    -0.0139     1.008     0.360     0.336 -0.5800  0.8111  0.0755
              Bcc     0.0317    -2.297    -0.820    -0.766  0.8143  0.5798  0.0261
 
              Baa    -0.0295     2.134     0.761     0.712  0.1539 -0.0444  0.9871
    42 O(17)  Bbb    -0.0276     1.997     0.713     0.666  0.9585 -0.2359 -0.1600
              Bcc     0.0571    -4.131    -1.474    -1.378  0.2400  0.9708  0.0062
 
              Baa    -0.2394    11.433     4.080     3.814 -0.3467  0.6466  0.6795
    43 Ni(61) Bbb    -0.0777     3.711     1.324     1.238  0.5736 -0.4270  0.6990
              Bcc     0.3171   -15.145    -5.404    -5.052  0.7421  0.6321 -0.2229
 
              Baa    -0.0091    -0.476    -0.170    -0.159  0.9398  0.2231  0.2587
    44 Cl(35) Bbb    -0.0027    -0.142    -0.051    -0.047 -0.2795  0.0664  0.9579
              Bcc     0.0118     0.617     0.220     0.206 -0.1966  0.9725 -0.1248
 
              Baa    -0.0015    -0.199    -0.071    -0.066  0.6686  0.0690  0.7404
    45 C(13)  Bbb    -0.0012    -0.158    -0.056    -0.053 -0.2735  0.9487  0.1585
              Bcc     0.0027     0.357     0.128     0.119  0.6915  0.3084 -0.6532
 
              Baa    -0.0008    -0.103    -0.037    -0.034  0.4735 -0.3188  0.8211
    46 C(13)  Bbb    -0.0003    -0.037    -0.013    -0.012  0.0532  0.9408  0.3346
              Bcc     0.0010     0.140     0.050     0.047  0.8792  0.1147 -0.4624
 
              Baa    -0.0009    -0.474    -0.169    -0.158 -0.4892  0.7880 -0.3737
    47 H(1)   Bbb    -0.0007    -0.400    -0.143    -0.133  0.1007  0.4767  0.8733
              Bcc     0.0016     0.875     0.312     0.292  0.8663  0.3896 -0.3126
 
              Baa    -0.0005    -0.283    -0.101    -0.094 -0.0001  0.9787  0.2051
    48 H(1)   Bbb    -0.0004    -0.220    -0.079    -0.073  0.3175 -0.1945  0.9281
              Bcc     0.0009     0.503     0.179     0.168  0.9483  0.0652 -0.3107
 
              Baa    -0.0004    -0.197    -0.070    -0.066 -0.5361  0.6011 -0.5926
    49 H(1)   Bbb    -0.0003    -0.184    -0.066    -0.061  0.1279  0.7518  0.6469
              Bcc     0.0007     0.380     0.136     0.127  0.8344  0.2710 -0.4799
 
              Baa    -0.0004    -0.055    -0.020    -0.018 -0.1388  0.9392 -0.3140
    50 C(13)  Bbb    -0.0003    -0.036    -0.013    -0.012  0.7340  0.3104  0.6041
              Bcc     0.0007     0.091     0.033     0.030 -0.6648  0.1467  0.7325
 
              Baa    -0.0004    -0.194    -0.069    -0.065 -0.0829  0.9381 -0.3364
    51 H(1)   Bbb    -0.0003    -0.174    -0.062    -0.058  0.7828  0.2702  0.5605
              Bcc     0.0007     0.368     0.131     0.123 -0.6167  0.2169  0.7567
 
              Baa    -0.0003    -0.141    -0.050    -0.047 -0.1676  0.9580 -0.2327
    52 H(1)   Bbb    -0.0002    -0.130    -0.046    -0.043  0.6594  0.2844  0.6959
              Bcc     0.0005     0.271     0.097     0.090  0.7328 -0.0368 -0.6794
 
              Baa    -0.0003    -0.183    -0.065    -0.061  0.4245  0.8847  0.1926
    53 H(1)   Bbb    -0.0003    -0.166    -0.059    -0.055  0.4436 -0.3886  0.8076
              Bcc     0.0007     0.349     0.125     0.117  0.7893 -0.2574 -0.5574
 
              Baa    -0.0007    -0.088    -0.031    -0.029  0.2950  0.8561  0.4243
    54 C(13)  Bbb    -0.0005    -0.062    -0.022    -0.021  0.7865 -0.4697  0.4010
              Bcc     0.0011     0.150     0.053     0.050 -0.5426 -0.2155  0.8119
 
              Baa    -0.0009    -0.458    -0.163    -0.153  0.1941  0.8099  0.5535
    55 H(1)   Bbb    -0.0005    -0.288    -0.103    -0.096  0.8846 -0.3884  0.2582
              Bcc     0.0014     0.746     0.266     0.249 -0.4241 -0.4395  0.7918
 
              Baa    -0.0004    -0.200    -0.071    -0.067  0.2799  0.8160  0.5058
    56 H(1)   Bbb    -0.0003    -0.160    -0.057    -0.054  0.7661 -0.5074  0.3947
              Bcc     0.0007     0.361     0.129     0.120 -0.5787 -0.2770  0.7671
 
              Baa    -0.0006    -0.302    -0.108    -0.101  0.3624  0.8986  0.2473
    57 H(1)   Bbb    -0.0004    -0.198    -0.071    -0.066  0.8385 -0.4302  0.3343
              Bcc     0.0009     0.500     0.178     0.167 -0.4068 -0.0862  0.9094
 
              Baa    -0.0045    -0.608    -0.217    -0.203 -0.3629 -0.1704  0.9161
    58 C(13)  Bbb    -0.0038    -0.514    -0.184    -0.172  0.7468 -0.6412  0.1766
              Bcc     0.0084     1.123     0.401     0.375  0.5573  0.7482  0.3599
 
              Baa    -0.0014    -0.193    -0.069    -0.064  0.5977 -0.5746 -0.5590
    59 C(13)  Bbb    -0.0009    -0.127    -0.045    -0.042  0.2152 -0.5567  0.8023
              Bcc     0.0024     0.320     0.114     0.107  0.7723  0.5999  0.2091
 
              Baa    -0.0019    -0.995    -0.355    -0.332 -0.6374  0.3864  0.6666
    60 H(1)   Bbb    -0.0013    -0.668    -0.238    -0.223  0.4428 -0.5244  0.7273
              Bcc     0.0031     1.663     0.594     0.555  0.6306  0.7588  0.1632
 
              Baa    -0.0011    -0.592    -0.211    -0.198 -0.4376  0.7932  0.4234
    61 H(1)   Bbb    -0.0009    -0.465    -0.166    -0.155  0.2213 -0.3614  0.9058
              Bcc     0.0020     1.058     0.377     0.353  0.8715  0.4901 -0.0174
 
              Baa    -0.0007    -0.399    -0.142    -0.133 -0.5385  0.3315  0.7747
    62 H(1)   Bbb    -0.0006    -0.300    -0.107    -0.100 -0.4504  0.6638 -0.5971
              Bcc     0.0013     0.699     0.249     0.233  0.7122  0.6704  0.2081
 
              Baa    -0.0013    -0.172    -0.061    -0.057 -0.3346 -0.6059  0.7217
    63 C(13)  Bbb    -0.0009    -0.119    -0.043    -0.040  0.7169 -0.6608 -0.2225
              Bcc     0.0022     0.291     0.104     0.097  0.6117  0.4430  0.6555
 
              Baa    -0.0009    -0.502    -0.179    -0.168 -0.0478  0.9550 -0.2929
    64 H(1)   Bbb    -0.0007    -0.377    -0.135    -0.126  0.8387 -0.1209 -0.5310
              Bcc     0.0016     0.880     0.314     0.293  0.5425  0.2710  0.7951
 
              Baa    -0.0017    -0.896    -0.320    -0.299  0.0899  0.7276 -0.6801
    65 H(1)   Bbb    -0.0012    -0.643    -0.229    -0.214  0.9111 -0.3358 -0.2389
              Bcc     0.0029     1.539     0.549     0.513  0.4022  0.5981  0.6932
 
              Baa    -0.0007    -0.371    -0.132    -0.124 -0.1315 -0.6831  0.7184
    66 H(1)   Bbb    -0.0005    -0.276    -0.099    -0.092  0.8197 -0.4825 -0.3088
              Bcc     0.0012     0.647     0.231     0.216  0.5576  0.5482  0.6234
 
              Baa    -0.0012    -0.162    -0.058    -0.054 -0.4626  0.4450  0.7668
    67 C(13)  Bbb    -0.0011    -0.152    -0.054    -0.051  0.1551  0.8922 -0.4242
              Bcc     0.0023     0.314     0.112     0.105  0.8729  0.0773  0.4818
 
              Baa    -0.0006    -0.339    -0.121    -0.113 -0.4507  0.5809  0.6778
    68 H(1)   Bbb    -0.0005    -0.241    -0.086    -0.080  0.2636  0.8121 -0.5207
              Bcc     0.0011     0.580     0.207     0.193  0.8529  0.0560  0.5191
 
              Baa    -0.0005    -0.284    -0.102    -0.095 -0.4292 -0.0354  0.9025
    69 H(1)   Bbb    -0.0004    -0.199    -0.071    -0.066 -0.3510  0.9272 -0.1306
              Bcc     0.0009     0.483     0.173     0.161  0.8322  0.3729  0.4104
 
              Baa    -0.0006    -0.342    -0.122    -0.114 -0.0067  0.8954 -0.4452
    70 H(1)   Bbb    -0.0005    -0.257    -0.092    -0.086 -0.2042  0.4346  0.8772
              Bcc     0.0011     0.599     0.214     0.200  0.9789  0.0968  0.1799
 
              Baa    -0.0025    -0.339    -0.121    -0.113  0.8075  0.3360  0.4848
    71 C(13)  Bbb     0.0007     0.088     0.032     0.029 -0.5437  0.1054  0.8326
              Bcc     0.0019     0.251     0.089     0.084 -0.2287  0.9360 -0.2678
 
              Baa    -0.0008    -0.110    -0.039    -0.037 -0.6145  0.7191  0.3247
    72 C(13)  Bbb    -0.0002    -0.027    -0.010    -0.009  0.6766  0.2686  0.6856
              Bcc     0.0010     0.137     0.049     0.046 -0.4058 -0.6409  0.6516
 
              Baa    -0.0011    -0.149    -0.053    -0.050  0.8931 -0.4364  0.1097
    73 C(13)  Bbb    -0.0004    -0.050    -0.018    -0.017  0.1080  0.4446  0.8892
              Bcc     0.0015     0.198     0.071     0.066  0.4368  0.7822 -0.4442
 
              Baa    -0.0005    -0.061    -0.022    -0.021  0.2227 -0.0469  0.9738
    74 C(13)  Bbb    -0.0002    -0.025    -0.009    -0.008  0.8533 -0.4737 -0.2179
              Bcc     0.0006     0.086     0.031     0.029  0.4715  0.8794 -0.0654
 
              Baa    -0.0005    -0.290    -0.104    -0.097 -0.1178  0.2168  0.9691
    75 H(1)   Bbb    -0.0004    -0.227    -0.081    -0.076  0.9329 -0.3103  0.1828
              Bcc     0.0010     0.517     0.185     0.173  0.3403  0.9256 -0.1657
 
              Baa    -0.0006    -0.080    -0.028    -0.027  0.3026 -0.1104  0.9467
    76 C(13)  Bbb    -0.0004    -0.050    -0.018    -0.017  0.6958 -0.6532 -0.2985
              Bcc     0.0010     0.130     0.046     0.043  0.6514  0.7491 -0.1208
 
              Baa    -0.0016    -0.835    -0.298    -0.278  0.6698 -0.0629  0.7398
    77 H(1)   Bbb    -0.0004    -0.231    -0.083    -0.077  0.5992 -0.5426 -0.5887
              Bcc     0.0020     1.066     0.380     0.356  0.4384  0.8377 -0.3257
 
              Baa    -0.0006    -0.079    -0.028    -0.026  0.7464 -0.6036 -0.2802
    78 C(13)  Bbb    -0.0001    -0.014    -0.005    -0.005  0.5351  0.2942  0.7919
              Bcc     0.0007     0.093     0.033     0.031  0.3955  0.7410 -0.5426
 
              Baa    -0.0003    -0.145    -0.052    -0.048  0.0442  0.0534  0.9976
    79 H(1)   Bbb    -0.0002    -0.121    -0.043    -0.040  0.8782 -0.4782 -0.0133
              Bcc     0.0005     0.266     0.095     0.089  0.4763  0.8766 -0.0680
 
              Baa    -0.0005    -0.259    -0.093    -0.086  0.5468 -0.4453  0.7090
    80 H(1)   Bbb    -0.0004    -0.221    -0.079    -0.074 -0.3674  0.6334  0.6811
              Bcc     0.0009     0.480     0.171     0.160  0.7524  0.6329 -0.1827
 
              Baa    -0.0002    -0.023    -0.008    -0.008  0.3654 -0.2635  0.8928
    81 C(13)  Bbb    -0.0002    -0.021    -0.008    -0.007  0.6922 -0.5644 -0.4499
              Bcc     0.0003     0.044     0.016     0.015  0.6224  0.7823 -0.0238
 
              Baa    -0.0002    -0.082    -0.029    -0.027  0.2165 -0.0286  0.9759
    82 H(1)   Bbb    -0.0001    -0.074    -0.027    -0.025  0.7983 -0.5702 -0.1938
              Bcc     0.0003     0.157     0.056     0.052  0.5620  0.8210 -0.1006
 
              Baa    -0.0002    -0.095    -0.034    -0.032  0.3154 -0.3145  0.8953
    83 H(1)   Bbb    -0.0002    -0.086    -0.031    -0.029  0.7415 -0.5071 -0.4393
              Bcc     0.0003     0.182     0.065     0.061  0.5921  0.8025  0.0732
 
              Baa    -0.0001    -0.071    -0.025    -0.024  0.3388 -0.2984  0.8923
    84 H(1)   Bbb    -0.0001    -0.068    -0.024    -0.023  0.6514 -0.6099 -0.4514
              Bcc     0.0003     0.138     0.049     0.046  0.6789  0.7341 -0.0123
 
              Baa    -0.0005     0.036     0.013     0.012  0.7167 -0.6551 -0.2390
    85 O(17)  Bbb    -0.0000     0.003     0.001     0.001  0.6228  0.4471  0.6420
              Bcc     0.0005    -0.039    -0.014    -0.013 -0.3137 -0.6090  0.7285
 
              Baa    -0.0017    -0.884    -0.315    -0.295  0.6233  0.7795 -0.0623
    86 H(1)   Bbb     0.0000     0.018     0.006     0.006  0.7634 -0.5892  0.2648
              Bcc     0.0016     0.866     0.309     0.289 -0.1697  0.2126  0.9623
 
              Baa    -0.0019    -0.256    -0.091    -0.085  0.6431  0.6212  0.4478
    87 C(13)  Bbb    -0.0012    -0.156    -0.056    -0.052  0.7656 -0.5331 -0.3600
              Bcc     0.0031     0.412     0.147     0.137 -0.0151 -0.5743  0.8185
 
              Baa    -0.0030    -0.407    -0.145    -0.136 -0.6512 -0.3030  0.6958
    88 C(13)  Bbb     0.0006     0.075     0.027     0.025  0.1498  0.8475  0.5092
              Bcc     0.0025     0.332     0.118     0.111  0.7440 -0.4358  0.5065
 
              Baa    -0.0019    -0.254    -0.091    -0.085 -0.4485 -0.2058  0.8698
    89 C(13)  Bbb     0.0003     0.045     0.016     0.015  0.7428  0.4554  0.4907
              Bcc     0.0016     0.209     0.075     0.070 -0.4970  0.8662 -0.0514
 
              Baa    -0.0011    -0.149    -0.053    -0.050  0.2182  0.8513  0.4772
    90 C(13)  Bbb    -0.0005    -0.064    -0.023    -0.021  0.9756 -0.2016 -0.0865
              Bcc     0.0016     0.212     0.076     0.071 -0.0226 -0.4845  0.8745
 
              Baa    -0.0011    -0.563    -0.201    -0.188  0.2268  0.9494  0.2171
    91 H(1)   Bbb    -0.0005    -0.262    -0.094    -0.088  0.8519 -0.0853 -0.5167
              Bcc     0.0015     0.825     0.294     0.275  0.4721 -0.3021  0.8282
 
              Baa    -0.0010    -0.140    -0.050    -0.047  0.7813  0.4588  0.4231
    92 C(13)  Bbb    -0.0005    -0.063    -0.023    -0.021 -0.6176  0.6663  0.4179
              Bcc     0.0015     0.204     0.073     0.068 -0.0902 -0.5878  0.8039
 
              Baa    -0.0008    -0.425    -0.152    -0.142  0.7451  0.3166  0.5870
    93 H(1)   Bbb    -0.0006    -0.330    -0.118    -0.110 -0.6665  0.3221  0.6723
              Bcc     0.0014     0.755     0.270     0.252 -0.0238  0.8922 -0.4510
 
              Baa    -0.0023    -0.311    -0.111    -0.104 -0.4130 -0.2561  0.8740
    94 C(13)  Bbb     0.0008     0.113     0.040     0.038  0.5472  0.6973  0.4629
              Bcc     0.0015     0.198     0.071     0.066  0.7280 -0.6695  0.1479
 
              Baa    -0.0004    -0.207    -0.074    -0.069 -0.1344  0.7840  0.6061
    95 H(1)   Bbb    -0.0003    -0.161    -0.057    -0.054  0.7904  0.4537 -0.4115
              Bcc     0.0007     0.368     0.131     0.123  0.5976 -0.4238  0.6807
 
              Baa    -0.0004    -0.193    -0.069    -0.064  0.9668  0.2527  0.0380
    96 H(1)   Bbb    -0.0003    -0.155    -0.055    -0.052 -0.1238  0.3334  0.9346
              Bcc     0.0007     0.348     0.124     0.116 -0.2235  0.9083 -0.3536
 
              Baa    -0.0003    -0.156    -0.056    -0.052 -0.6921  0.0758  0.7178
    97 H(1)   Bbb    -0.0001    -0.054    -0.019    -0.018  0.5501  0.6993  0.4565
              Bcc     0.0004     0.210     0.075     0.070 -0.4674  0.7108 -0.5257
 

 ---------------------------------------------------------------------------------

 1\1\GINC-M8-19-5\SP\UM06L\Gen\C41H46Cl1N4Ni2O3(2)\MALLA1\24-Aug-2022\0
 \\#m06l/gen pseudo=read integral=ultrafine temperature=308 scrf=(read)
 \\Title Card Required\\0,2\C,0,2.441134,-2.11925,3.031227\C,0,1.450112
 ,-1.845763,3.97962\C,0,0.199055,-1.31358,3.570203\C,0,0.0085,-1.047513
 ,2.15708\C,0,2.183025,-1.836905,1.677922\H,0,-0.759309,-1.236895,5.538
 306\H,0,3.415677,-2.537582,3.318589\H,0,1.624155,-2.047564,5.047779\C,
 0,-0.890447,-1.051703,4.461588\C,0,-2.243363,-0.422646,2.562312\C,0,-2
 .11529,-0.626036,3.950887\H,0,-2.993026,-0.484606,4.598078\N,0,-1.1746
 35,-0.547899,1.694833\N,0,0.989903,-1.322928,1.26001\C,0,3.139055,-2.1
 14159,0.601376\C,0,-3.477152,-0.19546,1.853813\N,0,3.105274,-1.538345,
 -0.561447\N,0,-3.511009,-0.22573,0.534439\Ni,0,-1.56747,0.068118,-0.11
 4759\C,0,0.242796,0.642327,-0.17299\C,0,0.628061,1.849419,0.301821\C,0
 ,-1.799247,0.000619,-2.172811\H,0,-2.779627,-0.48338,-2.30255\C,0,-1.7
 67153,1.386041,-1.920789\H,0,-0.791228,1.893153,-1.930274\C,0,-0.65733
 4,-0.870586,-2.470685\H,0,-0.909498,-1.934786,-2.602573\C,0,0.676746,-
 0.503512,-2.705633\H,0,0.973324,0.551902,-2.811269\H,0,-0.212461,2.520
 733,0.584017\C,0,-5.605586,0.328243,1.446498\H,0,-5.728606,1.431979,1.
 42215\H,0,-6.570287,-0.140311,1.715701\C,0,4.741275,-3.27832,-0.454349
 \H,0,4.6242,-4.336111,-0.75952\H,0,5.816826,-3.070989,-0.278805\C,0,4.
 056627,-2.268295,-1.428781\H,0,3.431506,-2.824343,-2.165711\C,0,-4.946
 635,-0.220549,0.156117\H,0,-5.103194,0.481444,-0.688432\O,0,4.041294,-
 3.102775,0.810488\O,0,-4.644625,0.009552,2.499566\Ni,0,0.74981,-1.0730
 56,-0.709381\Cl,0,0.637056,-3.409097,-1.104199\C,0,5.047627,-1.376559,
 -2.243733\C,0,5.976252,-0.566074,-1.316657\H,0,5.390137,0.062705,-0.61
 7677\H,0,6.645802,-1.213817,-0.712968\H,0,6.626516,0.106453,-1.914074\
 C,0,5.892102,-2.306701,-3.145185\H,0,5.247045,-2.906458,-3.822245\H,0,
 6.583004,-1.710041,-3.776975\H,0,6.514236,-3.012187,-2.554277\C,0,4.24
 5254,-0.407204,-3.135691\H,0,3.621063,0.27677,-2.527368\H,0,4.931881,0
 .209053,-3.753503\H,0,3.575385,-0.960225,-3.827317\C,0,-5.482392,-1.63
 5164,-0.284165\C,0,-5.372843,-2.664351,0.862276\H,0,-4.318029,-2.81300
 7,1.173158\H,0,-5.959568,-2.369161,1.756556\H,0,-5.759314,-3.649064,0.
 52585\C,0,-4.676189,-2.153604,-1.492178\H,0,-4.753704,-1.463603,-2.359
 411\H,0,-3.605888,-2.284577,-1.236105\H,0,-5.068437,-3.138452,-1.82113
 \C,0,-6.960072,-1.473954,-0.708825\H,0,-7.066195,-0.736932,-1.533275\H
 ,0,-7.362502,-2.443153,-1.070174\H,0,-7.609604,-1.142689,0.128342\C,0,
 1.94175,2.477149,0.51878\C,0,1.986463,3.816007,0.98176\C,0,3.183883,1.
 818984,0.310084\C,0,3.196638,4.485182,1.230312\H,0,1.039163,4.353575,1
 .156125\C,0,4.393572,2.474004,0.554469\H,0,3.184746,0.774215,-0.042425
 \C,0,4.41891,3.812234,1.01644\H,0,3.173865,5.523829,1.589867\H,0,5.357
 55,1.966423,0.395698\C,0,5.737353,5.696632,1.687022\H,0,5.27721,6.4117
 97,0.968405\H,0,5.248867,5.8219,2.67964\H,0,6.814649,5.928504,1.784802
 \O,0,5.655797,4.354682,1.223058\H,0,1.355218,-1.257098,-3.132379\C,0,-
 2.925279,2.296485,-1.929374\C,0,-4.171972,1.95992,-2.521218\C,0,-2.780
 258,3.603878,-1.391141\C,0,-5.232259,2.880206,-2.545695\H,0,-4.298058,
 0.97941,-3.006048\C,0,-3.843034,4.518505,-1.406863\H,0,-1.812457,3.896
 868,-0.953019\C,0,-5.078435,4.159987,-1.980191\H,0,-6.184405,2.600101,
 -3.02424\H,0,-3.705093,5.523422,-0.976861\H,0,-5.910955,4.880742,-2.00
 2818\\Version=ES64L-G16RevB.01\State=2-A\HF=-2834.1902446\S2=0.777887\
 S2-1=0.\S2A=0.750552\RMSD=3.292e-09\Dipole=-1.7449299,2.5178243,1.0341
 077\Quadrupole=25.6153399,-19.4977037,-6.1176362,-1.7933689,2.0303713,
 -1.4003424\PG=C01 [X(C41H46Cl1N4Ni2O3)]\\@


 LET US PLACE AT THE END OF EVERY CHAPTER.....THE
 TWO LETTERS USED BY THE ROMAN JUDGES WHEN THEY DID
 NOT UNDERSTAND A PLEADING.
 N. L. -NON LIQUET- IT IS NOT CLEAR.
                                              -- VOLTAIRE
 Job cpu time:       1 days 10 hours 40 minutes 49.7 seconds.
 Elapsed time:       0 days  2 hours 53 minutes 50.0 seconds.
 File lengths (MBytes):  RWF=   3729 Int=      0 D2E=      0 Chk=    238 Scr=      1
 Normal termination of Gaussian 16 at Wed Aug 24 18:09:12 2022.
