 Entering Gaussian System, Link 0=g16
 Input=Pro_R_E.com
 Output=Pro_R_E.log
 Initial command:
 /apps/gaussian16/B.01/AVX2/g16/l1.exe "/tmp/49306626/Gau-6415.inp" -scrdir="/tmp/49306626/"
 Entering Link 1 = /apps/gaussian16/B.01/AVX2/g16/l1.exe PID=      6416.
  
 Copyright (c) 1988-2017, Gaussian, Inc.  All Rights Reserved.
  
 This is part of the Gaussian(R) 16 program.  It is based on
 the Gaussian(R) 09 system (copyright 2009, Gaussian, Inc.),
 the Gaussian(R) 03 system (copyright 2003, Gaussian, Inc.),
 the Gaussian(R) 98 system (copyright 1998, Gaussian, Inc.),
 the Gaussian(R) 94 system (copyright 1995, Gaussian, Inc.),
 the Gaussian 92(TM) system (copyright 1992, Gaussian, Inc.),
 the Gaussian 90(TM) system (copyright 1990, Gaussian, Inc.),
 the Gaussian 88(TM) system (copyright 1988, Gaussian, Inc.),
 the Gaussian 86(TM) system (copyright 1986, Carnegie Mellon
 University), and the Gaussian 82(TM) system (copyright 1983,
 Carnegie Mellon University). Gaussian is a federally registered
 trademark of Gaussian, Inc.
  
 This software contains proprietary and confidential information,
 including trade secrets, belonging to Gaussian, Inc.
  
 This software is provided under written license and may be
 used, copied, transmitted, or stored only in accord with that
 written license.
  
 The following legend is applicable only to US Government
 contracts under FAR:
  
                    RESTRICTED RIGHTS LEGEND
  
 Use, reproduction and disclosure by the US Government is
 subject to restrictions as set forth in subparagraphs (a)
 and (c) of the Commercial Computer Software - Restricted
 Rights clause in FAR 52.227-19.
  
 Gaussian, Inc.
 340 Quinnipiac St., Bldg. 40, Wallingford CT 06492
  
  
 ---------------------------------------------------------------
 Warning -- This program may not be used in any manner that
 competes with the business of Gaussian, Inc. or will provide
 assistance to any competitor of Gaussian, Inc.  The licensee
 of this program is prohibited from giving any competitor of
 Gaussian, Inc. access to this program.  By using this program,
 the user acknowledges that Gaussian, Inc. is engaged in the
 business of creating and licensing software in the field of
 computational chemistry and represents and warrants to the
 licensee that it is not a competitor of Gaussian, Inc. and that
 it will not use this program in any manner prohibited above.
 ---------------------------------------------------------------
  

 Cite this work as:
 Gaussian 16, Revision B.01,
 M. J. Frisch, G. W. Trucks, H. B. Schlegel, G. E. Scuseria, 
 M. A. Robb, J. R. Cheeseman, G. Scalmani, V. Barone, 
 G. A. Petersson, H. Nakatsuji, X. Li, M. Caricato, A. V. Marenich, 
 J. Bloino, B. G. Janesko, R. Gomperts, B. Mennucci, H. P. Hratchian, 
 J. V. Ortiz, A. F. Izmaylov, J. L. Sonnenberg, D. Williams-Young, 
 F. Ding, F. Lipparini, F. Egidi, J. Goings, B. Peng, A. Petrone, 
 T. Henderson, D. Ranasinghe, V. G. Zakrzewski, J. Gao, N. Rega, 
 G. Zheng, W. Liang, M. Hada, M. Ehara, K. Toyota, R. Fukuda, 
 J. Hasegawa, M. Ishida, T. Nakajima, Y. Honda, O. Kitao, H. Nakai, 
 T. Vreven, K. Throssell, J. A. Montgomery, Jr., J. E. Peralta, 
 F. Ogliaro, M. J. Bearpark, J. J. Heyd, E. N. Brothers, K. N. Kudin, 
 V. N. Staroverov, T. A. Keith, R. Kobayashi, J. Normand, 
 K. Raghavachari, A. P. Rendell, J. C. Burant, S. S. Iyengar, 
 J. Tomasi, M. Cossi, J. M. Millam, M. Klene, C. Adamo, R. Cammi, 
 J. W. Ochterski, R. L. Martin, K. Morokuma, O. Farkas, 
 J. B. Foresman, and D. J. Fox, Gaussian, Inc., Wallingford CT, 2016.
 
 ******************************************
 Gaussian 16:  ES64L-G16RevB.01 20-Dec-2017
                16-May-2022 
 ******************************************
 %nprocshared=12
 Will use up to   12 processors via shared memory.
 %mem=24GB
 %chk=Pro_R_E.chk
 ----------------------------------------------------------------------
 #opt=(MaxCycles=500) freq=noraman bp86/gen pseudo=read integral=ultraf
 ine temperature=308 scrf=(read)
 ----------------------------------------------------------------------
 1/6=500,18=20,19=15,26=6,38=1,40=2,112=308000/1,3;
 2/9=110,12=2,17=6,18=5,40=1/2;
 3/5=7,11=2,16=1,17=8,25=1,30=1,70=2203,71=1,74=404,75=-5/1,2,3;
 4//1;
 5/5=2,38=5/2;
 6/7=2,8=2,9=2,10=2,28=1/1;
 7//1,2,3,16;
 1/6=500,18=20,19=15,26=6/3(2);
 2/9=110/2;
 99//99;
 2/9=110/2;
 3/5=7,6=1,11=2,16=1,17=8,25=1,30=1,70=2205,71=1,74=404,75=-5,82=7/1,2,3;
 4/5=5,16=3,69=1/1;
 5/5=2,38=5/2;
 7//1,2,3,16;
 1/6=500,18=20,19=15,26=6/3(-5);
 2/9=110/2;
 6/7=2,8=2,9=2,10=2,19=2,28=1/1;
 99/9=1/99;
 -------------------
 Title Card Required
 -------------------
 Symbolic Z-matrix:
 Charge =  0 Multiplicity = 2
 C                     2.45694  -2.07386   3.05061 
 C                     1.46516  -1.78904   3.99656 
 C                     0.21327  -1.26694   3.57918 
 C                     0.02177  -1.02113   2.16188 
 C                     2.19962  -1.81171   1.69466 
 H                    -0.74185  -1.16741   5.551 
 H                     3.43405  -2.48727   3.34438 
 H                     1.64009  -1.9753    5.06905 
 C                    -0.87669  -0.99729   4.47057 
 C                    -2.23654  -0.40099   2.56511 
 C                    -2.10454  -0.5846    3.95738 
 H                    -2.98315  -0.43815   4.60528 
 N                    -1.16671  -0.53271   1.6942 
 N                     1.00206  -1.30352   1.2674 
 C                     3.16267  -2.10908   0.6328 
 C                    -3.4732   -0.19068   1.85283 
 N                     3.15825  -1.55601  -0.53704 
 N                    -3.50752  -0.23865   0.53605 
 Ni                   -1.56597   0.05985  -0.11916 
 C                     0.2372    0.63606  -0.18557 
 C                     0.61062   1.85848   0.27126 
 C                    -1.78834  -0.04369  -2.17792 
 H                    -2.76189  -0.54598  -2.30366 
 C                    -1.78139   1.34499  -1.93964 
 H                    -0.81263   1.86996  -1.95235 
 C                    -0.63059  -0.89867  -2.46796 
 H                    -0.86628  -1.96802  -2.59799 
 C                     0.70561  -0.51512  -2.70151 
 H                     0.99029   0.54443  -2.80782 
 H                    -0.24283   2.51732   0.54991 
 C                    -5.60754   0.31285   1.43678 
 H                    -5.73732   1.41667   1.39702 
 H                    -6.57071  -0.16007   1.70955 
 C                     4.77404  -3.31649  -0.36031 
 H                     4.65433  -4.38069  -0.64547 
 H                     5.84836  -3.11191  -0.16648 
 C                     4.1185   -2.32169  -1.3702 
 H                     3.49706  -2.88506  -2.10608 
 C                    -4.94341  -0.24874   0.15596 
 H                    -5.10392   0.44127  -0.70087 
 O                     4.04703  -3.10773   0.88436 
 O                    -4.64585   0.01534   2.49737 
 Ni                    0.75836  -1.07852  -0.7045 
 Cl                    0.65091  -3.4186   -1.06718 
 C                     5.1444   -1.47199  -2.18311 
 C                     6.0636   -0.65592  -1.25171 
 H                     5.46967  -0.00233  -0.58123 
 H                     6.70749  -1.30303  -0.61629 
 H                     6.74001  -0.00777  -1.84983 
 C                     5.99253  -2.44132  -3.03969 
 H                     5.35109  -3.04612  -3.71863 
 H                     6.71138  -1.87318  -3.66926 
 H                     6.58617  -3.14377  -2.41459 
 C                     4.38423  -0.51157  -3.1214 
 H                     3.75867   0.20118  -2.54698 
 H                     5.0994    0.07525  -3.73832 
 H                     3.7213   -1.07156  -3.81615 
 C                    -5.46818  -1.67436  -0.26651 
 C                    -5.35497  -2.68891   0.89364 
 H                    -4.29849  -2.8259    1.20955 
 H                    -5.94764  -2.3866    1.78329 
 H                    -5.73393  -3.68134   0.5661 
 C                    -4.65314  -2.20244  -1.4655 
 H                    -4.73167  -1.52267  -2.34219 
 H                    -3.58161  -2.32275  -1.20176 
 H                    -5.03818  -3.19541  -1.78357 
 C                    -6.94574  -1.52884  -0.69795 
 H                    -7.05376  -0.80234  -1.53324 
 H                    -7.34092  -2.50682  -1.04841 
 H                    -7.60049  -1.19088   0.13406 
 C                     1.90724   2.53085   0.47531 
 C                     1.89378   3.87784   0.92048 
 C                     3.17982   1.92443   0.27315 
 C                     3.07454   4.60528   1.15789 
 H                     0.92234   4.37594   1.08988 
 C                     4.35946   2.64017   0.50664 
 H                     3.22969   0.87467  -0.06305 
 C                     4.32357   3.98392   0.94954 
 H                     3.00676   5.64756   1.50403 
 H                     5.34756   2.17634   0.35334 
 C                     5.56682   5.93712   1.59107 
 H                     5.07289   6.62155   0.86375 
 H                     5.07644   6.05494   2.58502 
 H                     6.63523   6.21667   1.68106 
 O                     5.54261   4.5828    1.14493 
 H                     1.39965  -1.26235  -3.11947 
 C                    -2.95681   2.23446  -1.96283 
 C                    -4.19097   1.87364  -2.56704 
 C                    -2.84116   3.5467   -1.42623 
 C                    -5.26791   2.77574  -2.60593 
 H                    -4.29423   0.88728  -3.05043 
 C                    -3.92023   4.44254  -1.45621 
 H                    -1.88225   3.85834  -0.97752 
 C                    -5.1433    4.0601   -2.04264 
 H                    -6.21128   2.47688  -3.09474 
 H                    -3.80486   5.45271  -1.02677 
 H                    -5.98955   4.76692  -2.07674 
 

 GradGradGradGradGradGradGradGradGradGradGradGradGradGradGradGradGradGrad
 Berny optimization.
 Initialization pass.
                           ----------------------------
                           !    Initial Parameters    !
                           ! (Angstroms and Degrees)  !
 --------------------------                            --------------------------
 ! Name  Definition              Value          Derivative Info.                !
 --------------------------------------------------------------------------------
 ! R1    R(1,2)                  1.3999         estimate D2E/DX2                !
 ! R2    R(1,5)                  1.4048         estimate D2E/DX2                !
 ! R3    R(1,7)                  1.1009         estimate D2E/DX2                !
 ! R4    R(2,3)                  1.4192         estimate D2E/DX2                !
 ! R5    R(2,8)                  1.1025         estimate D2E/DX2                !
 ! R6    R(3,4)                  1.4511         estimate D2E/DX2                !
 ! R7    R(3,9)                  1.4336         estimate D2E/DX2                !
 ! R8    R(4,13)                 1.3674         estimate D2E/DX2                !
 ! R9    R(4,14)                 1.3568         estimate D2E/DX2                !
 ! R10   R(5,14)                 1.3693         estimate D2E/DX2                !
 ! R11   R(5,15)                 1.4641         estimate D2E/DX2                !
 ! R12   R(6,9)                  1.102          estimate D2E/DX2                !
 ! R13   R(9,11)                 1.3933         estimate D2E/DX2                !
 ! R14   R(10,11)                1.4105         estimate D2E/DX2                !
 ! R15   R(10,13)                1.3858         estimate D2E/DX2                !
 ! R16   R(10,16)                1.4425         estimate D2E/DX2                !
 ! R17   R(11,12)                1.1014         estimate D2E/DX2                !
 ! R18   R(13,19)                1.9491         estimate D2E/DX2                !
 ! R19   R(14,43)                1.9996         estimate D2E/DX2                !
 ! R20   R(15,17)                1.294          estimate D2E/DX2                !
 ! R21   R(15,41)                1.3575         estimate D2E/DX2                !
 ! R22   R(16,18)                1.3181         estimate D2E/DX2                !
 ! R23   R(16,42)                1.3539         estimate D2E/DX2                !
 ! R24   R(17,37)                1.4841         estimate D2E/DX2                !
 ! R25   R(18,19)                2.0707         estimate D2E/DX2                !
 ! R26   R(18,39)                1.4854         estimate D2E/DX2                !
 ! R27   R(19,20)                1.8942         estimate D2E/DX2                !
 ! R28   R(19,22)                2.0733         estimate D2E/DX2                !
 ! R29   R(19,24)                2.2388         estimate D2E/DX2                !
 ! R30   R(19,43)                2.6535         estimate D2E/DX2                !
 ! R31   R(20,21)                1.3574         estimate D2E/DX2                !
 ! R32   R(20,43)                1.8657         estimate D2E/DX2                !
 ! R33   R(21,30)                1.1136         estimate D2E/DX2                !
 ! R34   R(21,71)                1.4748         estimate D2E/DX2                !
 ! R35   R(22,23)                1.1027         estimate D2E/DX2                !
 ! R36   R(22,24)                1.409          estimate D2E/DX2                !
 ! R37   R(22,26)                1.4682         estimate D2E/DX2                !
 ! R38   R(24,25)                1.1019         estimate D2E/DX2                !
 ! R39   R(24,87)                1.4742         estimate D2E/DX2                !
 ! R40   R(26,27)                1.1027         estimate D2E/DX2                !
 ! R41   R(26,28)                1.4096         estimate D2E/DX2                !
 ! R42   R(26,43)                2.252          estimate D2E/DX2                !
 ! R43   R(28,29)                1.1023         estimate D2E/DX2                !
 ! R44   R(28,43)                2.0756         estimate D2E/DX2                !
 ! R45   R(28,86)                1.1022         estimate D2E/DX2                !
 ! R46   R(31,32)                1.1121         estimate D2E/DX2                !
 ! R47   R(31,33)                1.1071         estimate D2E/DX2                !
 ! R48   R(31,39)                1.5482         estimate D2E/DX2                !
 ! R49   R(31,42)                1.4623         estimate D2E/DX2                !
 ! R50   R(34,35)                1.1082         estimate D2E/DX2                !
 ! R51   R(34,36)                1.1107         estimate D2E/DX2                !
 ! R52   R(34,37)                1.5618         estimate D2E/DX2                !
 ! R53   R(34,41)                1.4565         estimate D2E/DX2                !
 ! R54   R(37,38)                1.1158         estimate D2E/DX2                !
 ! R55   R(37,45)                1.5605         estimate D2E/DX2                !
 ! R56   R(39,40)                1.1118         estimate D2E/DX2                !
 ! R57   R(39,58)                1.5768         estimate D2E/DX2                !
 ! R58   R(43,44)                2.3705         estimate D2E/DX2                !
 ! R59   R(45,46)                1.5422         estimate D2E/DX2                !
 ! R60   R(45,50)                1.5468         estimate D2E/DX2                !
 ! R61   R(45,54)                1.5429         estimate D2E/DX2                !
 ! R62   R(46,47)                1.1088         estimate D2E/DX2                !
 ! R63   R(46,48)                1.1123         estimate D2E/DX2                !
 ! R64   R(46,49)                1.1115         estimate D2E/DX2                !
 ! R65   R(50,51)                1.1127         estimate D2E/DX2                !
 ! R66   R(50,52)                1.1117         estimate D2E/DX2                !
 ! R67   R(50,53)                1.112          estimate D2E/DX2                !
 ! R68   R(54,55)                1.1087         estimate D2E/DX2                !
 ! R69   R(54,56)                1.1119         estimate D2E/DX2                !
 ! R70   R(54,57)                1.1116         estimate D2E/DX2                !
 ! R71   R(58,59)                1.5453         estimate D2E/DX2                !
 ! R72   R(58,63)                1.543          estimate D2E/DX2                !
 ! R73   R(58,67)                1.5461         estimate D2E/DX2                !
 ! R74   R(59,60)                1.1112         estimate D2E/DX2                !
 ! R75   R(59,61)                1.1109         estimate D2E/DX2                !
 ! R76   R(59,62)                1.1117         estimate D2E/DX2                !
 ! R77   R(63,64)                1.1121         estimate D2E/DX2                !
 ! R78   R(63,65)                1.11           estimate D2E/DX2                !
 ! R79   R(63,66)                1.1115         estimate D2E/DX2                !
 ! R80   R(67,68)                1.1123         estimate D2E/DX2                !
 ! R81   R(67,69)                1.1115         estimate D2E/DX2                !
 ! R82   R(67,70)                1.1114         estimate D2E/DX2                !
 ! R83   R(71,72)                1.4187         estimate D2E/DX2                !
 ! R84   R(71,73)                1.4241         estimate D2E/DX2                !
 ! R85   R(72,74)                1.407          estimate D2E/DX2                !
 ! R86   R(72,75)                1.1048         estimate D2E/DX2                !
 ! R87   R(73,76)                1.3994         estimate D2E/DX2                !
 ! R88   R(73,77)                1.1034         estimate D2E/DX2                !
 ! R89   R(74,78)                1.4105         estimate D2E/DX2                !
 ! R90   R(74,79)                1.1003         estimate D2E/DX2                !
 ! R91   R(76,78)                1.4153         estimate D2E/DX2                !
 ! R92   R(76,80)                1.1023         estimate D2E/DX2                !
 ! R93   R(78,85)                1.3722         estimate D2E/DX2                !
 ! R94   R(81,82)                1.1142         estimate D2E/DX2                !
 ! R95   R(81,83)                1.1146         estimate D2E/DX2                !
 ! R96   R(81,84)                1.108          estimate D2E/DX2                !
 ! R97   R(81,85)                1.4261         estimate D2E/DX2                !
 ! R98   R(87,88)                1.4207         estimate D2E/DX2                !
 ! R99   R(87,89)                1.4224         estimate D2E/DX2                !
 ! R100  R(88,90)                1.4054         estimate D2E/DX2                !
 ! R101  R(88,91)                1.1033         estimate D2E/DX2                !
 ! R102  R(89,92)                1.4028         estimate D2E/DX2                !
 ! R103  R(89,93)                1.1036         estimate D2E/DX2                !
 ! R104  R(90,94)                1.408          estimate D2E/DX2                !
 ! R105  R(90,95)                1.1037         estimate D2E/DX2                !
 ! R106  R(92,94)                1.4093         estimate D2E/DX2                !
 ! R107  R(92,96)                1.1037         estimate D2E/DX2                !
 ! R108  R(94,97)                1.1031         estimate D2E/DX2                !
 ! A1    A(2,1,5)              118.9795         estimate D2E/DX2                !
 ! A2    A(2,1,7)              121.6627         estimate D2E/DX2                !
 ! A3    A(5,1,7)              119.3548         estimate D2E/DX2                !
 ! A4    A(1,2,3)              120.0728         estimate D2E/DX2                !
 ! A5    A(1,2,8)              120.7011         estimate D2E/DX2                !
 ! A6    A(3,2,8)              119.2232         estimate D2E/DX2                !
 ! A7    A(2,3,4)              117.7728         estimate D2E/DX2                !
 ! A8    A(2,3,9)              123.8487         estimate D2E/DX2                !
 ! A9    A(4,3,9)              118.3644         estimate D2E/DX2                !
 ! A10   A(3,4,13)             120.6138         estimate D2E/DX2                !
 ! A11   A(3,4,14)             120.8835         estimate D2E/DX2                !
 ! A12   A(13,4,14)            118.4791         estimate D2E/DX2                !
 ! A13   A(1,5,14)             122.0482         estimate D2E/DX2                !
 ! A14   A(1,5,15)             122.7969         estimate D2E/DX2                !
 ! A15   A(14,5,15)            115.1106         estimate D2E/DX2                !
 ! A16   A(3,9,6)              119.1781         estimate D2E/DX2                !
 ! A17   A(3,9,11)             119.7815         estimate D2E/DX2                !
 ! A18   A(6,9,11)             120.9749         estimate D2E/DX2                !
 ! A19   A(11,10,13)           122.3926         estimate D2E/DX2                !
 ! A20   A(11,10,16)           125.9153         estimate D2E/DX2                !
 ! A21   A(13,10,16)           111.4303         estimate D2E/DX2                !
 ! A22   A(9,11,10)            118.9854         estimate D2E/DX2                !
 ! A23   A(9,11,12)            121.7144         estimate D2E/DX2                !
 ! A24   A(10,11,12)           119.2529         estimate D2E/DX2                !
 ! A25   A(4,13,10)            119.3404         estimate D2E/DX2                !
 ! A26   A(4,13,19)            127.2183         estimate D2E/DX2                !
 ! A27   A(10,13,19)           113.4325         estimate D2E/DX2                !
 ! A28   A(4,14,5)             120.2275         estimate D2E/DX2                !
 ! A29   A(4,14,43)            122.593          estimate D2E/DX2                !
 ! A30   A(5,14,43)            117.133          estimate D2E/DX2                !
 ! A31   A(5,15,17)            124.5165         estimate D2E/DX2                !
 ! A32   A(5,15,41)            116.3314         estimate D2E/DX2                !
 ! A33   A(17,15,41)           118.9598         estimate D2E/DX2                !
 ! A34   A(10,16,18)           120.6835         estimate D2E/DX2                !
 ! A35   A(10,16,42)           121.9815         estimate D2E/DX2                !
 ! A36   A(18,16,42)           117.2951         estimate D2E/DX2                !
 ! A37   A(15,17,37)           106.548          estimate D2E/DX2                !
 ! A38   A(16,18,19)           106.6446         estimate D2E/DX2                !
 ! A39   A(16,18,39)           106.323          estimate D2E/DX2                !
 ! A40   A(19,18,39)           145.7287         estimate D2E/DX2                !
 ! A41   A(13,19,18)            81.5967         estimate D2E/DX2                !
 ! A42   A(13,19,20)            85.9915         estimate D2E/DX2                !
 ! A43   A(13,19,22)           158.5338         estimate D2E/DX2                !
 ! A44   A(13,19,24)           161.9482         estimate D2E/DX2                !
 ! A45   A(13,19,43)            83.9939         estimate D2E/DX2                !
 ! A46   A(18,19,20)           161.3533         estimate D2E/DX2                !
 ! A47   A(18,19,22)           101.9132         estimate D2E/DX2                !
 ! A48   A(18,19,24)           104.467          estimate D2E/DX2                !
 ! A49   A(18,19,43)           146.0221         estimate D2E/DX2                !
 ! A50   A(20,19,22)            94.7311         estimate D2E/DX2                !
 ! A51   A(20,19,24)            83.5963         estimate D2E/DX2                !
 ! A52   A(22,19,43)            81.5749         estimate D2E/DX2                !
 ! A53   A(24,19,43)            98.6951         estimate D2E/DX2                !
 ! A54   A(19,20,21)           121.6045         estimate D2E/DX2                !
 ! A55   A(21,20,43)           147.6094         estimate D2E/DX2                !
 ! A56   A(20,21,30)           113.966          estimate D2E/DX2                !
 ! A57   A(20,21,71)           134.3494         estimate D2E/DX2                !
 ! A58   A(30,21,71)           111.6816         estimate D2E/DX2                !
 ! A59   A(19,22,23)           103.3366         estimate D2E/DX2                !
 ! A60   A(19,22,26)            98.0863         estimate D2E/DX2                !
 ! A61   A(23,22,24)           118.2027         estimate D2E/DX2                !
 ! A62   A(23,22,26)           114.1063         estimate D2E/DX2                !
 ! A63   A(24,22,26)           127.1187         estimate D2E/DX2                !
 ! A64   A(19,24,25)           101.4355         estimate D2E/DX2                !
 ! A65   A(19,24,87)           115.8398         estimate D2E/DX2                !
 ! A66   A(22,24,25)           118.1596         estimate D2E/DX2                !
 ! A67   A(22,24,87)           126.0192         estimate D2E/DX2                !
 ! A68   A(25,24,87)           114.4148         estimate D2E/DX2                !
 ! A69   A(22,26,27)           114.8016         estimate D2E/DX2                !
 ! A70   A(22,26,28)           128.4453         estimate D2E/DX2                !
 ! A71   A(22,26,43)           112.2214         estimate D2E/DX2                !
 ! A72   A(27,26,28)           116.5464         estimate D2E/DX2                !
 ! A73   A(27,26,43)            98.4369         estimate D2E/DX2                !
 ! A74   A(26,28,29)           121.4891         estimate D2E/DX2                !
 ! A75   A(26,28,86)           118.3768         estimate D2E/DX2                !
 ! A76   A(29,28,43)           110.3126         estimate D2E/DX2                !
 ! A77   A(29,28,86)           116.9038         estimate D2E/DX2                !
 ! A78   A(43,28,86)            99.4871         estimate D2E/DX2                !
 ! A79   A(32,31,33)           109.3449         estimate D2E/DX2                !
 ! A80   A(32,31,39)           112.3651         estimate D2E/DX2                !
 ! A81   A(32,31,42)           107.7353         estimate D2E/DX2                !
 ! A82   A(33,31,39)           114.9648         estimate D2E/DX2                !
 ! A83   A(33,31,42)           107.8509         estimate D2E/DX2                !
 ! A84   A(39,31,42)           104.1297         estimate D2E/DX2                !
 ! A85   A(35,34,36)           109.0421         estimate D2E/DX2                !
 ! A86   A(35,34,37)           113.5734         estimate D2E/DX2                !
 ! A87   A(35,34,41)           107.6747         estimate D2E/DX2                !
 ! A88   A(36,34,37)           113.6731         estimate D2E/DX2                !
 ! A89   A(36,34,41)           107.8959         estimate D2E/DX2                !
 ! A90   A(37,34,41)           104.5827         estimate D2E/DX2                !
 ! A91   A(17,37,34)           103.7207         estimate D2E/DX2                !
 ! A92   A(17,37,38)           105.6866         estimate D2E/DX2                !
 ! A93   A(17,37,45)           115.905          estimate D2E/DX2                !
 ! A94   A(34,37,38)           109.7924         estimate D2E/DX2                !
 ! A95   A(34,37,45)           114.0613         estimate D2E/DX2                !
 ! A96   A(38,37,45)           107.307          estimate D2E/DX2                !
 ! A97   A(18,39,31)           101.5669         estimate D2E/DX2                !
 ! A98   A(18,39,40)           109.4242         estimate D2E/DX2                !
 ! A99   A(18,39,58)           113.3551         estimate D2E/DX2                !
 ! A100  A(31,39,40)           110.5192         estimate D2E/DX2                !
 ! A101  A(31,39,58)           114.0071         estimate D2E/DX2                !
 ! A102  A(40,39,58)           107.8546         estimate D2E/DX2                !
 ! A103  A(15,41,34)           105.7993         estimate D2E/DX2                !
 ! A104  A(16,42,31)           104.7917         estimate D2E/DX2                !
 ! A105  A(14,43,19)            86.4162         estimate D2E/DX2                !
 ! A106  A(14,43,20)            82.135          estimate D2E/DX2                !
 ! A107  A(14,43,26)           148.9129         estimate D2E/DX2                !
 ! A108  A(14,43,44)            92.5979         estimate D2E/DX2                !
 ! A109  A(19,43,26)            66.31           estimate D2E/DX2                !
 ! A110  A(19,43,28)            94.2163         estimate D2E/DX2                !
 ! A111  A(19,43,44)           114.6801         estimate D2E/DX2                !
 ! A112  A(20,43,26)            88.4023         estimate D2E/DX2                !
 ! A113  A(20,43,28)            90.6333         estimate D2E/DX2                !
 ! A114  A(20,43,44)           159.5764         estimate D2E/DX2                !
 ! A115  A(26,43,44)            86.0475         estimate D2E/DX2                !
 ! A116  A(28,43,44)            96.8691         estimate D2E/DX2                !
 ! A117  A(37,45,46)           111.429          estimate D2E/DX2                !
 ! A118  A(37,45,50)           107.9211         estimate D2E/DX2                !
 ! A119  A(37,45,54)           109.3789         estimate D2E/DX2                !
 ! A120  A(46,45,50)           109.8307         estimate D2E/DX2                !
 ! A121  A(46,45,54)           109.3623         estimate D2E/DX2                !
 ! A122  A(50,45,54)           108.872          estimate D2E/DX2                !
 ! A123  A(45,46,47)           110.9678         estimate D2E/DX2                !
 ! A124  A(45,46,48)           112.4707         estimate D2E/DX2                !
 ! A125  A(45,46,49)           110.2611         estimate D2E/DX2                !
 ! A126  A(47,46,48)           107.9134         estimate D2E/DX2                !
 ! A127  A(47,46,49)           107.9169         estimate D2E/DX2                !
 ! A128  A(48,46,49)           107.1215         estimate D2E/DX2                !
 ! A129  A(45,50,51)           111.2491         estimate D2E/DX2                !
 ! A130  A(45,50,52)           110.3583         estimate D2E/DX2                !
 ! A131  A(45,50,53)           112.1647         estimate D2E/DX2                !
 ! A132  A(51,50,52)           107.7569         estimate D2E/DX2                !
 ! A133  A(51,50,53)           107.9013         estimate D2E/DX2                !
 ! A134  A(52,50,53)           107.2158         estimate D2E/DX2                !
 ! A135  A(45,54,55)           111.2885         estimate D2E/DX2                !
 ! A136  A(45,54,56)           110.4266         estimate D2E/DX2                !
 ! A137  A(45,54,57)           111.1185         estimate D2E/DX2                !
 ! A138  A(55,54,56)           108.124          estimate D2E/DX2                !
 ! A139  A(55,54,57)           108.1293         estimate D2E/DX2                !
 ! A140  A(56,54,57)           107.618          estimate D2E/DX2                !
 ! A141  A(39,58,59)           111.5958         estimate D2E/DX2                !
 ! A142  A(39,58,63)           109.9885         estimate D2E/DX2                !
 ! A143  A(39,58,67)           107.922          estimate D2E/DX2                !
 ! A144  A(59,58,63)           108.6618         estimate D2E/DX2                !
 ! A145  A(59,58,67)           109.9558         estimate D2E/DX2                !
 ! A146  A(63,58,67)           108.6741         estimate D2E/DX2                !
 ! A147  A(58,59,60)           111.3481         estimate D2E/DX2                !
 ! A148  A(58,59,61)           112.5487         estimate D2E/DX2                !
 ! A149  A(58,59,62)           109.8728         estimate D2E/DX2                !
 ! A150  A(60,59,61)           108.2468         estimate D2E/DX2                !
 ! A151  A(60,59,62)           107.3265         estimate D2E/DX2                !
 ! A152  A(61,59,62)           107.2791         estimate D2E/DX2                !
 ! A153  A(58,63,64)           111.473          estimate D2E/DX2                !
 ! A154  A(58,63,65)           111.2461         estimate D2E/DX2                !
 ! A155  A(58,63,66)           110.1898         estimate D2E/DX2                !
 ! A156  A(64,63,65)           108.7664         estimate D2E/DX2                !
 ! A157  A(64,63,66)           107.2176         estimate D2E/DX2                !
 ! A158  A(65,63,66)           107.7921         estimate D2E/DX2                !
 ! A159  A(58,67,68)           111.336          estimate D2E/DX2                !
 ! A160  A(58,67,69)           110.1785         estimate D2E/DX2                !
 ! A161  A(58,67,70)           112.5028         estimate D2E/DX2                !
 ! A162  A(68,67,69)           107.6607         estimate D2E/DX2                !
 ! A163  A(68,67,70)           107.8404         estimate D2E/DX2                !
 ! A164  A(69,67,70)           107.1064         estimate D2E/DX2                !
 ! A165  A(21,71,72)           117.901          estimate D2E/DX2                !
 ! A166  A(21,71,73)           124.8808         estimate D2E/DX2                !
 ! A167  A(72,71,73)           117.2144         estimate D2E/DX2                !
 ! A168  A(71,72,74)           122.402          estimate D2E/DX2                !
 ! A169  A(71,72,75)           118.9819         estimate D2E/DX2                !
 ! A170  A(74,72,75)           118.6159         estimate D2E/DX2                !
 ! A171  A(71,73,76)           120.783          estimate D2E/DX2                !
 ! A172  A(71,73,77)           119.2591         estimate D2E/DX2                !
 ! A173  A(76,73,77)           119.9557         estimate D2E/DX2                !
 ! A174  A(72,74,78)           119.3687         estimate D2E/DX2                !
 ! A175  A(72,74,79)           119.4137         estimate D2E/DX2                !
 ! A176  A(78,74,79)           121.2175         estimate D2E/DX2                !
 ! A177  A(73,76,78)           121.0929         estimate D2E/DX2                !
 ! A178  A(73,76,80)           121.1461         estimate D2E/DX2                !
 ! A179  A(78,76,80)           117.7609         estimate D2E/DX2                !
 ! A180  A(74,78,76)           119.139          estimate D2E/DX2                !
 ! A181  A(74,78,85)           124.9867         estimate D2E/DX2                !
 ! A182  A(76,78,85)           115.8743         estimate D2E/DX2                !
 ! A183  A(82,81,83)           108.7934         estimate D2E/DX2                !
 ! A184  A(82,81,84)           108.9954         estimate D2E/DX2                !
 ! A185  A(82,81,85)           111.8158         estimate D2E/DX2                !
 ! A186  A(83,81,84)           108.9737         estimate D2E/DX2                !
 ! A187  A(83,81,85)           111.8323         estimate D2E/DX2                !
 ! A188  A(84,81,85)           106.342          estimate D2E/DX2                !
 ! A189  A(78,85,81)           118.3005         estimate D2E/DX2                !
 ! A190  A(24,87,88)           123.0988         estimate D2E/DX2                !
 ! A191  A(24,87,89)           119.0681         estimate D2E/DX2                !
 ! A192  A(88,87,89)           117.734          estimate D2E/DX2                !
 ! A193  A(87,88,90)           120.9592         estimate D2E/DX2                !
 ! A194  A(87,88,91)           119.65           estimate D2E/DX2                !
 ! A195  A(90,88,91)           119.3413         estimate D2E/DX2                !
 ! A196  A(87,89,92)           121.2342         estimate D2E/DX2                !
 ! A197  A(87,89,93)           118.9816         estimate D2E/DX2                !
 ! A198  A(92,89,93)           119.7841         estimate D2E/DX2                !
 ! A199  A(88,90,94)           120.4403         estimate D2E/DX2                !
 ! A200  A(88,90,95)           119.5656         estimate D2E/DX2                !
 ! A201  A(94,90,95)           119.9885         estimate D2E/DX2                !
 ! A202  A(89,92,94)           120.2109         estimate D2E/DX2                !
 ! A203  A(89,92,96)           119.7202         estimate D2E/DX2                !
 ! A204  A(94,92,96)           120.0664         estimate D2E/DX2                !
 ! A205  A(90,94,92)           119.3953         estimate D2E/DX2                !
 ! A206  A(90,94,97)           120.2801         estimate D2E/DX2                !
 ! A207  A(92,94,97)           120.3151         estimate D2E/DX2                !
 ! A208  L(14,43,28,19,-1)     180.6325         estimate D2E/DX2                !
 ! A209  L(14,43,28,19,-2)     169.2381         estimate D2E/DX2                !
 ! D1    D(5,1,2,3)              1.1569         estimate D2E/DX2                !
 ! D2    D(5,1,2,8)           -179.4608         estimate D2E/DX2                !
 ! D3    D(7,1,2,3)           -179.4803         estimate D2E/DX2                !
 ! D4    D(7,1,2,8)             -0.0981         estimate D2E/DX2                !
 ! D5    D(2,1,5,14)            -0.9225         estimate D2E/DX2                !
 ! D6    D(2,1,5,15)          -178.3815         estimate D2E/DX2                !
 ! D7    D(7,1,5,14)           179.6998         estimate D2E/DX2                !
 ! D8    D(7,1,5,15)             2.2408         estimate D2E/DX2                !
 ! D9    D(1,2,3,4)             -1.2194         estimate D2E/DX2                !
 ! D10   D(1,2,3,9)            177.39           estimate D2E/DX2                !
 ! D11   D(8,2,3,4)            179.3892         estimate D2E/DX2                !
 ! D12   D(8,2,3,9)             -2.0014         estimate D2E/DX2                !
 ! D13   D(2,3,4,13)           179.2762         estimate D2E/DX2                !
 ! D14   D(2,3,4,14)             1.0663         estimate D2E/DX2                !
 ! D15   D(9,3,4,13)             0.5887         estimate D2E/DX2                !
 ! D16   D(9,3,4,14)          -177.6212         estimate D2E/DX2                !
 ! D17   D(2,3,9,6)              2.144          estimate D2E/DX2                !
 ! D18   D(2,3,9,11)          -174.942          estimate D2E/DX2                !
 ! D19   D(4,3,9,6)           -179.2543         estimate D2E/DX2                !
 ! D20   D(4,3,9,11)             3.6597         estimate D2E/DX2                !
 ! D21   D(3,4,13,10)           -6.5285         estimate D2E/DX2                !
 ! D22   D(3,4,13,19)          172.3154         estimate D2E/DX2                !
 ! D23   D(14,4,13,10)         171.7237         estimate D2E/DX2                !
 ! D24   D(14,4,13,19)          -9.4324         estimate D2E/DX2                !
 ! D25   D(3,4,14,5)            -0.8414         estimate D2E/DX2                !
 ! D26   D(3,4,14,43)          176.6069         estimate D2E/DX2                !
 ! D27   D(13,4,14,5)         -179.0887         estimate D2E/DX2                !
 ! D28   D(13,4,14,43)          -1.6404         estimate D2E/DX2                !
 ! D29   D(1,5,14,4)             0.7694         estimate D2E/DX2                !
 ! D30   D(1,5,14,43)         -176.8149         estimate D2E/DX2                !
 ! D31   D(15,5,14,4)          178.4106         estimate D2E/DX2                !
 ! D32   D(15,5,14,43)           0.8263         estimate D2E/DX2                !
 ! D33   D(1,5,15,17)         -158.8698         estimate D2E/DX2                !
 ! D34   D(1,5,15,41)           26.2384         estimate D2E/DX2                !
 ! D35   D(14,5,15,17)          23.5086         estimate D2E/DX2                !
 ! D36   D(14,5,15,41)        -151.3831         estimate D2E/DX2                !
 ! D37   D(3,9,11,10)           -1.9168         estimate D2E/DX2                !
 ! D38   D(3,9,11,12)          175.5635         estimate D2E/DX2                !
 ! D39   D(6,9,11,10)         -178.9493         estimate D2E/DX2                !
 ! D40   D(6,9,11,12)           -1.4691         estimate D2E/DX2                !
 ! D41   D(13,10,11,9)          -4.24           estimate D2E/DX2                !
 ! D42   D(13,10,11,12)        178.2168         estimate D2E/DX2                !
 ! D43   D(16,10,11,9)         169.3687         estimate D2E/DX2                !
 ! D44   D(16,10,11,12)         -8.1745         estimate D2E/DX2                !
 ! D45   D(11,10,13,4)           8.5325         estimate D2E/DX2                !
 ! D46   D(11,10,13,19)       -170.4641         estimate D2E/DX2                !
 ! D47   D(16,10,13,4)        -165.9096         estimate D2E/DX2                !
 ! D48   D(16,10,13,19)         15.0937         estimate D2E/DX2                !
 ! D49   D(11,10,16,18)       -169.323          estimate D2E/DX2                !
 ! D50   D(11,10,16,42)          8.3192         estimate D2E/DX2                !
 ! D51   D(13,10,16,18)          4.8815         estimate D2E/DX2                !
 ! D52   D(13,10,16,42)       -177.4763         estimate D2E/DX2                !
 ! D53   D(4,13,19,18)         160.721          estimate D2E/DX2                !
 ! D54   D(4,13,19,20)         -33.2323         estimate D2E/DX2                !
 ! D55   D(4,13,19,22)          59.5034         estimate D2E/DX2                !
 ! D56   D(4,13,19,24)         -88.0751         estimate D2E/DX2                !
 ! D57   D(4,13,19,43)          11.5811         estimate D2E/DX2                !
 ! D58   D(10,13,19,18)        -20.3773         estimate D2E/DX2                !
 ! D59   D(10,13,19,20)        145.6694         estimate D2E/DX2                !
 ! D60   D(10,13,19,22)       -121.5949         estimate D2E/DX2                !
 ! D61   D(10,13,19,24)         90.8265         estimate D2E/DX2                !
 ! D62   D(10,13,19,43)       -169.5172         estimate D2E/DX2                !
 ! D63   D(4,14,43,19)           7.3595         estimate D2E/DX2                !
 ! D64   D(4,14,43,20)          52.9564         estimate D2E/DX2                !
 ! D65   D(4,14,43,26)         -20.5671         estimate D2E/DX2                !
 ! D66   D(4,14,43,44)        -107.2203         estimate D2E/DX2                !
 ! D67   D(5,14,43,19)        -175.118          estimate D2E/DX2                !
 ! D68   D(5,14,43,20)        -129.521          estimate D2E/DX2                !
 ! D69   D(5,14,43,26)         156.9555         estimate D2E/DX2                !
 ! D70   D(5,14,43,44)          70.3023         estimate D2E/DX2                !
 ! D71   D(5,15,17,37)        -169.3367         estimate D2E/DX2                !
 ! D72   D(41,15,17,37)          5.4304         estimate D2E/DX2                !
 ! D73   D(5,15,41,34)         173.3052         estimate D2E/DX2                !
 ! D74   D(17,15,41,34)         -1.885          estimate D2E/DX2                !
 ! D75   D(10,16,18,19)        -20.316          estimate D2E/DX2                !
 ! D76   D(10,16,18,39)        169.1795         estimate D2E/DX2                !
 ! D77   D(42,16,18,19)        161.9344         estimate D2E/DX2                !
 ! D78   D(42,16,18,39)         -8.57           estimate D2E/DX2                !
 ! D79   D(10,16,42,31)        174.541          estimate D2E/DX2                !
 ! D80   D(18,16,42,31)         -7.7407         estimate D2E/DX2                !
 ! D81   D(15,17,37,34)         -6.1875         estimate D2E/DX2                !
 ! D82   D(15,17,37,38)        109.3189         estimate D2E/DX2                !
 ! D83   D(15,17,37,45)       -132.0014         estimate D2E/DX2                !
 ! D84   D(16,18,19,13)         21.5006         estimate D2E/DX2                !
 ! D85   D(16,18,19,20)        -27.2916         estimate D2E/DX2                !
 ! D86   D(16,18,19,22)        179.9784         estimate D2E/DX2                !
 ! D87   D(16,18,19,24)       -141.1403         estimate D2E/DX2                !
 ! D88   D(16,18,19,43)         87.393          estimate D2E/DX2                !
 ! D89   D(39,18,19,13)       -174.8284         estimate D2E/DX2                !
 ! D90   D(39,18,19,20)        136.3794         estimate D2E/DX2                !
 ! D91   D(39,18,19,22)        -16.3506         estimate D2E/DX2                !
 ! D92   D(39,18,19,24)         22.5307         estimate D2E/DX2                !
 ! D93   D(39,18,19,43)       -108.936          estimate D2E/DX2                !
 ! D94   D(16,18,39,31)         19.7587         estimate D2E/DX2                !
 ! D95   D(16,18,39,40)        136.602          estimate D2E/DX2                !
 ! D96   D(16,18,39,58)       -102.9743         estimate D2E/DX2                !
 ! D97   D(19,18,39,31)       -143.9401         estimate D2E/DX2                !
 ! D98   D(19,18,39,40)        -27.0968         estimate D2E/DX2                !
 ! D99   D(19,18,39,58)         93.3269         estimate D2E/DX2                !
 ! D100  D(13,19,20,21)        -86.0148         estimate D2E/DX2                !
 ! D101  D(18,19,20,21)        -37.7634         estimate D2E/DX2                !
 ! D102  D(22,19,20,21)        115.5027         estimate D2E/DX2                !
 ! D103  D(24,19,20,21)         79.2152         estimate D2E/DX2                !
 ! D104  D(13,19,22,23)         79.2847         estimate D2E/DX2                !
 ! D105  D(13,19,22,26)        -37.9508         estimate D2E/DX2                !
 ! D106  D(18,19,22,23)        -18.0915         estimate D2E/DX2                !
 ! D107  D(18,19,22,26)       -135.327          estimate D2E/DX2                !
 ! D108  D(20,19,22,23)        170.3614         estimate D2E/DX2                !
 ! D109  D(20,19,22,26)         53.1259         estimate D2E/DX2                !
 ! D110  D(43,19,22,23)        127.5482         estimate D2E/DX2                !
 ! D111  D(43,19,22,26)         10.3128         estimate D2E/DX2                !
 ! D112  D(13,19,24,25)         45.463          estimate D2E/DX2                !
 ! D113  D(13,19,24,87)        -79.0449         estimate D2E/DX2                !
 ! D114  D(18,19,24,25)        153.1948         estimate D2E/DX2                !
 ! D115  D(18,19,24,87)         28.687          estimate D2E/DX2                !
 ! D116  D(20,19,24,25)         -9.6916         estimate D2E/DX2                !
 ! D117  D(20,19,24,87)       -134.1994         estimate D2E/DX2                !
 ! D118  D(43,19,24,25)        -51.8707         estimate D2E/DX2                !
 ! D119  D(43,19,24,87)       -176.3786         estimate D2E/DX2                !
 ! D120  D(13,19,43,14)         -7.8746         estimate D2E/DX2                !
 ! D121  D(13,19,43,26)        156.8134         estimate D2E/DX2                !
 ! D122  D(13,19,43,28)       -177.1127         estimate D2E/DX2                !
 ! D123  D(13,19,43,44)         83.3401         estimate D2E/DX2                !
 ! D124  D(18,19,43,14)        -73.1001         estimate D2E/DX2                !
 ! D125  D(18,19,43,26)         91.5879         estimate D2E/DX2                !
 ! D126  D(18,19,43,28)        117.6618         estimate D2E/DX2                !
 ! D127  D(18,19,43,44)         18.1146         estimate D2E/DX2                !
 ! D128  D(22,19,43,14)       -171.9373         estimate D2E/DX2                !
 ! D129  D(22,19,43,26)         -7.2493         estimate D2E/DX2                !
 ! D130  D(22,19,43,28)         18.8247         estimate D2E/DX2                !
 ! D131  D(22,19,43,44)        -80.7225         estimate D2E/DX2                !
 ! D132  D(24,19,43,14)        154.1241         estimate D2E/DX2                !
 ! D133  D(24,19,43,26)        -41.1879         estimate D2E/DX2                !
 ! D134  D(24,19,43,28)        -15.114          estimate D2E/DX2                !
 ! D135  D(24,19,43,44)       -114.6612         estimate D2E/DX2                !
 ! D136  D(19,20,21,30)         -7.7043         estimate D2E/DX2                !
 ! D137  D(19,20,21,71)        172.9883         estimate D2E/DX2                !
 ! D138  D(43,20,21,30)       -171.7322         estimate D2E/DX2                !
 ! D139  D(43,20,21,71)          8.9605         estimate D2E/DX2                !
 ! D140  D(21,20,43,14)         73.7451         estimate D2E/DX2                !
 ! D141  D(21,20,43,26)       -135.9464         estimate D2E/DX2                !
 ! D142  D(21,20,43,28)        -98.2662         estimate D2E/DX2                !
 ! D143  D(21,20,43,44)        149.8672         estimate D2E/DX2                !
 ! D144  D(20,21,71,72)        176.7364         estimate D2E/DX2                !
 ! D145  D(20,21,71,73)         -4.0048         estimate D2E/DX2                !
 ! D146  D(30,21,71,72)         -2.5825         estimate D2E/DX2                !
 ! D147  D(30,21,71,73)        176.6763         estimate D2E/DX2                !
 ! D148  D(23,22,24,25)       -171.7151         estimate D2E/DX2                !
 ! D149  D(23,22,24,87)         -6.0572         estimate D2E/DX2                !
 ! D150  D(26,22,24,25)         -0.9446         estimate D2E/DX2                !
 ! D151  D(26,22,24,87)        164.7133         estimate D2E/DX2                !
 ! D152  D(19,22,26,27)         98.2808         estimate D2E/DX2                !
 ! D153  D(19,22,26,28)        -87.1768         estimate D2E/DX2                !
 ! D154  D(19,22,26,43)        -13.0268         estimate D2E/DX2                !
 ! D155  D(23,22,26,27)        -10.3109         estimate D2E/DX2                !
 ! D156  D(23,22,26,28)        164.2316         estimate D2E/DX2                !
 ! D157  D(23,22,26,43)       -121.6185         estimate D2E/DX2                !
 ! D158  D(24,22,26,27)        178.5974         estimate D2E/DX2                !
 ! D159  D(24,22,26,28)         -6.8602         estimate D2E/DX2                !
 ! D160  D(24,22,26,43)         67.2898         estimate D2E/DX2                !
 ! D161  D(19,24,87,88)        -93.4682         estimate D2E/DX2                !
 ! D162  D(19,24,87,89)         90.2348         estimate D2E/DX2                !
 ! D163  D(22,24,87,88)        -17.0914         estimate D2E/DX2                !
 ! D164  D(22,24,87,89)        166.6117         estimate D2E/DX2                !
 ! D165  D(25,24,87,88)        149.0316         estimate D2E/DX2                !
 ! D166  D(25,24,87,89)        -27.2653         estimate D2E/DX2                !
 ! D167  D(22,26,28,29)         -7.7044         estimate D2E/DX2                !
 ! D168  D(22,26,28,86)       -166.7687         estimate D2E/DX2                !
 ! D169  D(27,26,28,29)        166.7573         estimate D2E/DX2                !
 ! D170  D(27,26,28,86)          7.6929         estimate D2E/DX2                !
 ! D171  D(22,26,43,14)         41.6701         estimate D2E/DX2                !
 ! D172  D(22,26,43,19)         10.9772         estimate D2E/DX2                !
 ! D173  D(22,26,43,20)        -30.1874         estimate D2E/DX2                !
 ! D174  D(22,26,43,44)        130.1456         estimate D2E/DX2                !
 ! D175  D(27,26,43,14)        -79.574          estimate D2E/DX2                !
 ! D176  D(27,26,43,19)       -110.2669         estimate D2E/DX2                !
 ! D177  D(27,26,43,20)       -151.4315         estimate D2E/DX2                !
 ! D178  D(27,26,43,44)          8.9016         estimate D2E/DX2                !
 ! D179  D(29,28,43,19)         78.2535         estimate D2E/DX2                !
 ! D180  D(29,28,43,20)         32.7967         estimate D2E/DX2                !
 ! D181  D(29,28,43,44)       -166.2412         estimate D2E/DX2                !
 ! D182  D(86,28,43,19)       -158.3075         estimate D2E/DX2                !
 ! D183  D(86,28,43,20)        156.2356         estimate D2E/DX2                !
 ! D184  D(86,28,43,44)        -42.8023         estimate D2E/DX2                !
 ! D185  D(32,31,39,18)         92.4618         estimate D2E/DX2                !
 ! D186  D(32,31,39,40)        -23.5814         estimate D2E/DX2                !
 ! D187  D(32,31,39,58)       -145.254          estimate D2E/DX2                !
 ! D188  D(33,31,39,18)       -141.617          estimate D2E/DX2                !
 ! D189  D(33,31,39,40)        102.3398         estimate D2E/DX2                !
 ! D190  D(33,31,39,58)        -19.3328         estimate D2E/DX2                !
 ! D191  D(42,31,39,18)        -23.8498         estimate D2E/DX2                !
 ! D192  D(42,31,39,40)       -139.8931         estimate D2E/DX2                !
 ! D193  D(42,31,39,58)         98.4344         estimate D2E/DX2                !
 ! D194  D(32,31,42,16)        -99.8359         estimate D2E/DX2                !
 ! D195  D(33,31,42,16)        142.2357         estimate D2E/DX2                !
 ! D196  D(39,31,42,16)         19.667          estimate D2E/DX2                !
 ! D197  D(35,34,37,17)        122.251          estimate D2E/DX2                !
 ! D198  D(35,34,37,38)          9.6907         estimate D2E/DX2                !
 ! D199  D(35,34,37,45)       -110.7697         estimate D2E/DX2                !
 ! D200  D(36,34,37,17)       -112.3006         estimate D2E/DX2                !
 ! D201  D(36,34,37,38)        135.1391         estimate D2E/DX2                !
 ! D202  D(36,34,37,45)         14.6787         estimate D2E/DX2                !
 ! D203  D(41,34,37,17)          5.1346         estimate D2E/DX2                !
 ! D204  D(41,34,37,38)       -107.4257         estimate D2E/DX2                !
 ! D205  D(41,34,37,45)        132.1139         estimate D2E/DX2                !
 ! D206  D(35,34,41,15)       -123.4786         estimate D2E/DX2                !
 ! D207  D(36,34,41,15)        118.9578         estimate D2E/DX2                !
 ! D208  D(37,34,41,15)         -2.3735         estimate D2E/DX2                !
 ! D209  D(17,37,45,46)         62.5472         estimate D2E/DX2                !
 ! D210  D(17,37,45,50)       -176.7926         estimate D2E/DX2                !
 ! D211  D(17,37,45,54)        -58.4907         estimate D2E/DX2                !
 ! D212  D(34,37,45,46)        -57.8266         estimate D2E/DX2                !
 ! D213  D(34,37,45,50)         62.8337         estimate D2E/DX2                !
 ! D214  D(34,37,45,54)       -178.8644         estimate D2E/DX2                !
 ! D215  D(38,37,45,46)       -179.6669         estimate D2E/DX2                !
 ! D216  D(38,37,45,50)        -59.0066         estimate D2E/DX2                !
 ! D217  D(38,37,45,54)         59.2953         estimate D2E/DX2                !
 ! D218  D(18,39,58,59)         61.7243         estimate D2E/DX2                !
 ! D219  D(18,39,58,63)        -58.9517         estimate D2E/DX2                !
 ! D220  D(18,39,58,67)       -177.3582         estimate D2E/DX2                !
 ! D221  D(31,39,58,59)        -53.8326         estimate D2E/DX2                !
 ! D222  D(31,39,58,63)       -174.5086         estimate D2E/DX2                !
 ! D223  D(31,39,58,67)         67.0849         estimate D2E/DX2                !
 ! D224  D(40,39,58,59)       -176.9662         estimate D2E/DX2                !
 ! D225  D(40,39,58,63)         62.3577         estimate D2E/DX2                !
 ! D226  D(40,39,58,67)        -56.0488         estimate D2E/DX2                !
 ! D227  D(37,45,46,47)        -56.7254         estimate D2E/DX2                !
 ! D228  D(37,45,46,48)         64.2694         estimate D2E/DX2                !
 ! D229  D(37,45,46,49)       -176.24           estimate D2E/DX2                !
 ! D230  D(50,45,46,47)       -176.2592         estimate D2E/DX2                !
 ! D231  D(50,45,46,48)        -55.2644         estimate D2E/DX2                !
 ! D232  D(50,45,46,49)         64.2263         estimate D2E/DX2                !
 ! D233  D(54,45,46,47)         64.3221         estimate D2E/DX2                !
 ! D234  D(54,45,46,48)       -174.6831         estimate D2E/DX2                !
 ! D235  D(54,45,46,49)        -55.1924         estimate D2E/DX2                !
 ! D236  D(37,45,50,51)         58.1022         estimate D2E/DX2                !
 ! D237  D(37,45,50,52)        177.6614         estimate D2E/DX2                !
 ! D238  D(37,45,50,53)        -62.8636         estimate D2E/DX2                !
 ! D239  D(46,45,50,51)        179.7578         estimate D2E/DX2                !
 ! D240  D(46,45,50,52)        -60.6831         estimate D2E/DX2                !
 ! D241  D(46,45,50,53)         58.7919         estimate D2E/DX2                !
 ! D242  D(54,45,50,51)        -60.5239         estimate D2E/DX2                !
 ! D243  D(54,45,50,52)         59.0352         estimate D2E/DX2                !
 ! D244  D(54,45,50,53)        178.5102         estimate D2E/DX2                !
 ! D245  D(37,45,54,55)         62.1046         estimate D2E/DX2                !
 ! D246  D(37,45,54,56)       -177.8045         estimate D2E/DX2                !
 ! D247  D(37,45,54,57)        -58.4589         estimate D2E/DX2                !
 ! D248  D(46,45,54,55)        -60.1794         estimate D2E/DX2                !
 ! D249  D(46,45,54,56)         59.9114         estimate D2E/DX2                !
 ! D250  D(46,45,54,57)        179.2571         estimate D2E/DX2                !
 ! D251  D(50,45,54,55)        179.8118         estimate D2E/DX2                !
 ! D252  D(50,45,54,56)        -60.0973         estimate D2E/DX2                !
 ! D253  D(50,45,54,57)         59.2484         estimate D2E/DX2                !
 ! D254  D(39,58,59,60)        -61.357          estimate D2E/DX2                !
 ! D255  D(39,58,59,61)         60.3981         estimate D2E/DX2                !
 ! D256  D(39,58,59,62)        179.874          estimate D2E/DX2                !
 ! D257  D(63,58,59,60)         60.0914         estimate D2E/DX2                !
 ! D258  D(63,58,59,61)       -178.1535         estimate D2E/DX2                !
 ! D259  D(63,58,59,62)        -58.6776         estimate D2E/DX2                !
 ! D260  D(67,58,59,60)        178.9188         estimate D2E/DX2                !
 ! D261  D(67,58,59,61)        -59.3261         estimate D2E/DX2                !
 ! D262  D(67,58,59,62)         60.1498         estimate D2E/DX2                !
 ! D263  D(39,58,63,64)        -59.5613         estimate D2E/DX2                !
 ! D264  D(39,58,63,65)         62.0302         estimate D2E/DX2                !
 ! D265  D(39,58,63,66)       -178.4791         estimate D2E/DX2                !
 ! D266  D(59,58,63,64)        178.0112         estimate D2E/DX2                !
 ! D267  D(59,58,63,65)        -60.3974         estimate D2E/DX2                !
 ! D268  D(59,58,63,66)         59.0933         estimate D2E/DX2                !
 ! D269  D(67,58,63,64)         58.3809         estimate D2E/DX2                !
 ! D270  D(67,58,63,65)        179.9724         estimate D2E/DX2                !
 ! D271  D(67,58,63,66)        -60.5369         estimate D2E/DX2                !
 ! D272  D(39,58,67,68)         58.0515         estimate D2E/DX2                !
 ! D273  D(39,58,67,69)        177.4282         estimate D2E/DX2                !
 ! D274  D(39,58,67,70)        -63.1355         estimate D2E/DX2                !
 ! D275  D(59,58,67,68)        179.9872         estimate D2E/DX2                !
 ! D276  D(59,58,67,69)        -60.636          estimate D2E/DX2                !
 ! D277  D(59,58,67,70)         58.8002         estimate D2E/DX2                !
 ! D278  D(63,58,67,68)        -61.1929         estimate D2E/DX2                !
 ! D279  D(63,58,67,69)         58.1839         estimate D2E/DX2                !
 ! D280  D(63,58,67,70)        177.6201         estimate D2E/DX2                !
 ! D281  D(21,71,72,74)        179.3791         estimate D2E/DX2                !
 ! D282  D(21,71,72,75)         -0.4888         estimate D2E/DX2                !
 ! D283  D(73,71,72,74)          0.0628         estimate D2E/DX2                !
 ! D284  D(73,71,72,75)       -179.8051         estimate D2E/DX2                !
 ! D285  D(21,71,73,76)       -179.3282         estimate D2E/DX2                !
 ! D286  D(21,71,73,77)          0.1267         estimate D2E/DX2                !
 ! D287  D(72,71,73,76)         -0.0648         estimate D2E/DX2                !
 ! D288  D(72,71,73,77)        179.3902         estimate D2E/DX2                !
 ! D289  D(71,72,74,78)         -0.0064         estimate D2E/DX2                !
 ! D290  D(71,72,74,79)       -179.9134         estimate D2E/DX2                !
 ! D291  D(75,72,74,78)        179.862          estimate D2E/DX2                !
 ! D292  D(75,72,74,79)         -0.045          estimate D2E/DX2                !
 ! D293  D(71,73,76,78)          0.0115         estimate D2E/DX2                !
 ! D294  D(71,73,76,80)        179.9226         estimate D2E/DX2                !
 ! D295  D(77,73,76,78)       -179.4397         estimate D2E/DX2                !
 ! D296  D(77,73,76,80)          0.4714         estimate D2E/DX2                !
 ! D297  D(72,74,78,76)         -0.0491         estimate D2E/DX2                !
 ! D298  D(72,74,78,85)       -179.9739         estimate D2E/DX2                !
 ! D299  D(79,74,78,76)        179.8562         estimate D2E/DX2                !
 ! D300  D(79,74,78,85)         -0.0687         estimate D2E/DX2                !
 ! D301  D(73,76,78,74)          0.0469         estimate D2E/DX2                !
 ! D302  D(73,76,78,85)        179.9785         estimate D2E/DX2                !
 ! D303  D(80,76,78,74)       -179.8671         estimate D2E/DX2                !
 ! D304  D(80,76,78,85)          0.0644         estimate D2E/DX2                !
 ! D305  D(74,78,85,81)         -0.0794         estimate D2E/DX2                !
 ! D306  D(76,78,85,81)        179.9936         estimate D2E/DX2                !
 ! D307  D(82,81,85,78)        -61.114          estimate D2E/DX2                !
 ! D308  D(83,81,85,78)         61.1748         estimate D2E/DX2                !
 ! D309  D(84,81,85,78)       -179.9781         estimate D2E/DX2                !
 ! D310  D(24,87,88,90)       -177.6625         estimate D2E/DX2                !
 ! D311  D(24,87,88,91)         -0.2384         estimate D2E/DX2                !
 ! D312  D(89,87,88,90)         -1.3191         estimate D2E/DX2                !
 ! D313  D(89,87,88,91)        176.105          estimate D2E/DX2                !
 ! D314  D(24,87,89,92)        178.3294         estimate D2E/DX2                !
 ! D315  D(24,87,89,93)         -1.8031         estimate D2E/DX2                !
 ! D316  D(88,87,89,92)          1.8339         estimate D2E/DX2                !
 ! D317  D(88,87,89,93)       -178.2985         estimate D2E/DX2                !
 ! D318  D(87,88,90,94)         -0.0619         estimate D2E/DX2                !
 ! D319  D(87,88,90,95)        179.0731         estimate D2E/DX2                !
 ! D320  D(91,88,90,94)       -177.4939         estimate D2E/DX2                !
 ! D321  D(91,88,90,95)          1.6411         estimate D2E/DX2                !
 ! D322  D(87,89,92,94)         -0.9643         estimate D2E/DX2                !
 ! D323  D(87,89,92,96)        179.6093         estimate D2E/DX2                !
 ! D324  D(93,89,92,94)        179.1692         estimate D2E/DX2                !
 ! D325  D(93,89,92,96)         -0.2572         estimate D2E/DX2                !
 ! D326  D(88,90,94,92)          0.9754         estimate D2E/DX2                !
 ! D327  D(88,90,94,97)        179.8567         estimate D2E/DX2                !
 ! D328  D(95,90,94,92)       -178.156          estimate D2E/DX2                !
 ! D329  D(95,90,94,97)          0.7254         estimate D2E/DX2                !
 ! D330  D(89,92,94,90)         -0.4673         estimate D2E/DX2                !
 ! D331  D(89,92,94,97)       -179.3482         estimate D2E/DX2                !
 ! D332  D(96,92,94,90)        178.9572         estimate D2E/DX2                !
 ! D333  D(96,92,94,97)          0.0763         estimate D2E/DX2                !
 --------------------------------------------------------------------------------
 Trust Radius=3.00D-01 FncErr=5.00D-06 GrdErr=5.00D-06 EigMax=2.50D+02 EigMin=1.00D-04
 Number of steps in this run=    500 maximum allowed number of steps=    582.
 GradGradGradGradGradGradGradGradGradGradGradGradGradGradGradGradGradGrad

 Stoichiometry    C41H46ClN4Ni2O3(2)
 Framework group  C1[X(C41H46ClN4Ni2O3)]
 Deg. of freedom   285
 Full point group                 C1      NOp   1
 Largest Abelian subgroup         C1      NOp   1
 Largest concise Abelian subgroup C1      NOp   1
                         Standard orientation:                         
 ---------------------------------------------------------------------
 Center     Atomic      Atomic             Coordinates (Angstroms)
 Number     Number       Type             X           Y           Z
 ---------------------------------------------------------------------
      1          6           0        2.456941   -2.073858    3.050606
      2          6           0        1.465158   -1.789035    3.996558
      3          6           0        0.213266   -1.266938    3.579183
      4          6           0        0.021765   -1.021131    2.161882
      5          6           0        2.199618   -1.811705    1.694663
      6          1           0       -0.741847   -1.167407    5.550995
      7          1           0        3.434050   -2.487272    3.344375
      8          1           0        1.640092   -1.975304    5.069048
      9          6           0       -0.876691   -0.997293    4.470569
     10          6           0       -2.236540   -0.400989    2.565110
     11          6           0       -2.104544   -0.584604    3.957378
     12          1           0       -2.983152   -0.438151    4.605281
     13          7           0       -1.166711   -0.532709    1.694200
     14          7           0        1.002057   -1.303521    1.267399
     15          6           0        3.162666   -2.109078    0.632800
     16          6           0       -3.473196   -0.190679    1.852828
     17          7           0        3.158254   -1.556014   -0.537036
     18          7           0       -3.507519   -0.238646    0.536048
     19         28           0       -1.565973    0.059851   -0.119162
     20          6           0        0.237199    0.636063   -0.185569
     21          6           0        0.610618    1.858477    0.271257
     22          6           0       -1.788343   -0.043687   -2.177924
     23          1           0       -2.761888   -0.545975   -2.303664
     24          6           0       -1.781390    1.344987   -1.939640
     25          1           0       -0.812628    1.869958   -1.952352
     26          6           0       -0.630586   -0.898667   -2.467957
     27          1           0       -0.866275   -1.968021   -2.597993
     28          6           0        0.705609   -0.515115   -2.701512
     29          1           0        0.990285    0.544433   -2.807815
     30          1           0       -0.242831    2.517323    0.549914
     31          6           0       -5.607537    0.312854    1.436780
     32          1           0       -5.737318    1.416666    1.397021
     33          1           0       -6.570708   -0.160073    1.709554
     34          6           0        4.774042   -3.316491   -0.360306
     35          1           0        4.654334   -4.380688   -0.645468
     36          1           0        5.848361   -3.111914   -0.166483
     37          6           0        4.118496   -2.321693   -1.370202
     38          1           0        3.497058   -2.885060   -2.106083
     39          6           0       -4.943409   -0.248740    0.155956
     40          1           0       -5.103922    0.441270   -0.700869
     41          8           0        4.047033   -3.107735    0.884364
     42          8           0       -4.645849    0.015338    2.497365
     43         28           0        0.758364   -1.078522   -0.704498
     44         17           0        0.650905   -3.418600   -1.067180
     45          6           0        5.144402   -1.471986   -2.183114
     46          6           0        6.063598   -0.655920   -1.251713
     47          1           0        5.469666   -0.002327   -0.581233
     48          1           0        6.707489   -1.303026   -0.616291
     49          1           0        6.740009   -0.007767   -1.849833
     50          6           0        5.992526   -2.441319   -3.039693
     51          1           0        5.351094   -3.046119   -3.718631
     52          1           0        6.711380   -1.873176   -3.669263
     53          1           0        6.586168   -3.143767   -2.414593
     54          6           0        4.384226   -0.511567   -3.121403
     55          1           0        3.758667    0.201179   -2.546982
     56          1           0        5.099399    0.075245   -3.738321
     57          1           0        3.721299   -1.071563   -3.816145
     58          6           0       -5.468184   -1.674359   -0.266507
     59          6           0       -5.354971   -2.688908    0.893640
     60          1           0       -4.298493   -2.825901    1.209551
     61          1           0       -5.947643   -2.386597    1.783287
     62          1           0       -5.733933   -3.681340    0.566100
     63          6           0       -4.653135   -2.202438   -1.465495
     64          1           0       -4.731674   -1.522666   -2.342192
     65          1           0       -3.581609   -2.322752   -1.201757
     66          1           0       -5.038184   -3.195414   -1.783569
     67          6           0       -6.945740   -1.528840   -0.697946
     68          1           0       -7.053759   -0.802342   -1.533242
     69          1           0       -7.340923   -2.506819   -1.048409
     70          1           0       -7.600489   -1.190882    0.134059
     71          6           0        1.907241    2.530854    0.475308
     72          6           0        1.893781    3.877836    0.920477
     73          6           0        3.179823    1.924430    0.273153
     74          6           0        3.074540    4.605282    1.157894
     75          1           0        0.922340    4.375938    1.089883
     76          6           0        4.359464    2.640168    0.506642
     77          1           0        3.229690    0.874668   -0.063050
     78          6           0        4.323566    3.983920    0.949544
     79          1           0        3.006759    5.647555    1.504030
     80          1           0        5.347562    2.176337    0.353335
     81          6           0        5.566821    5.937118    1.591070
     82          1           0        5.072892    6.621552    0.863748
     83          1           0        5.076442    6.054936    2.585019
     84          1           0        6.635225    6.216666    1.681064
     85          8           0        5.542608    4.582797    1.144931
     86          1           0        1.399654   -1.262345   -3.119475
     87          6           0       -2.956814    2.234456   -1.962833
     88          6           0       -4.190966    1.873640   -2.567042
     89          6           0       -2.841159    3.546702   -1.426226
     90          6           0       -5.267914    2.775738   -2.605932
     91          1           0       -4.294234    0.887277   -3.050430
     92          6           0       -3.920230    4.442543   -1.456207
     93          1           0       -1.882249    3.858335   -0.977519
     94          6           0       -5.143304    4.060103   -2.042643
     95          1           0       -6.211277    2.476880   -3.094735
     96          1           0       -3.804855    5.452708   -1.026773
     97          1           0       -5.989553    4.766924   -2.076738
 ---------------------------------------------------------------------
 Rotational constants (GHZ):           0.0725726           0.0403640           0.0357652
 General basis read from cards:  (5D, 7F)
 ======================================================================================================
                                       Pseudopotential Parameters
 ======================================================================================================
  Center     Atomic      Valence      Angular      Power
  Number     Number     Electrons     Momentum     of R      Exponent        Coefficient   SO-Coeffient
 ======================================================================================================
    1          6
                                   No pseudopotential on this center.
    2          6
                                   No pseudopotential on this center.
    3          6
                                   No pseudopotential on this center.
    4          6
                                   No pseudopotential on this center.
    5          6
                                   No pseudopotential on this center.
    6          1
                                   No pseudopotential on this center.
    7          1
                                   No pseudopotential on this center.
    8          1
                                   No pseudopotential on this center.
    9          6
                                   No pseudopotential on this center.
   10          6
                                   No pseudopotential on this center.
   11          6
                                   No pseudopotential on this center.
   12          1
                                   No pseudopotential on this center.
   13          7
                                   No pseudopotential on this center.
   14          7
                                   No pseudopotential on this center.
   15          6
                                   No pseudopotential on this center.
   16          6
                                   No pseudopotential on this center.
   17          7
                                   No pseudopotential on this center.
   18          7
                                   No pseudopotential on this center.
   19         28           18
                                      D and up 
                                                     1      469.9324331      -10.00000000    0.00000000
                                                     2       85.4236411      -69.40848050    0.00000000
                                                     2       21.2674984      -12.09510200    0.00000000
                                      S - D
                                                     0      162.1686097        3.00000000    0.00000000
                                                     1      176.5333232       22.02536180    0.00000000
                                                     2       68.9562010      443.01810880    0.00000000
                                                     2       13.5792838      145.56964110    0.00000000
                                      P - D
                                                     0       69.0181506        5.00000000    0.00000000
                                                     1      275.5955596        4.98828240    0.00000000
                                                     2       47.1315453      256.69458530    0.00000000
                                                     2       12.9874075       78.47544500    0.00000000
   20          6
                                   No pseudopotential on this center.
   21          6
                                   No pseudopotential on this center.
   22          6
                                   No pseudopotential on this center.
   23          1
                                   No pseudopotential on this center.
   24          6
                                   No pseudopotential on this center.
   25          1
                                   No pseudopotential on this center.
   26          6
                                   No pseudopotential on this center.
   27          1
                                   No pseudopotential on this center.
   28          6
                                   No pseudopotential on this center.
   29          1
                                   No pseudopotential on this center.
   30          1
                                   No pseudopotential on this center.
   31          6
                                   No pseudopotential on this center.
   32          1
                                   No pseudopotential on this center.
   33          1
                                   No pseudopotential on this center.
   34          6
                                   No pseudopotential on this center.
   35          1
                                   No pseudopotential on this center.
   36          1
                                   No pseudopotential on this center.
   37          6
                                   No pseudopotential on this center.
   38          1
                                   No pseudopotential on this center.
   39          6
                                   No pseudopotential on this center.
   40          1
                                   No pseudopotential on this center.
   41          8
                                   No pseudopotential on this center.
   42          8
                                   No pseudopotential on this center.
   43         28           18
                                      D and up 
                                                     1      469.9324331      -10.00000000    0.00000000
                                                     2       85.4236411      -69.40848050    0.00000000
                                                     2       21.2674984      -12.09510200    0.00000000
                                      S - D
                                                     0      162.1686097        3.00000000    0.00000000
                                                     1      176.5333232       22.02536180    0.00000000
                                                     2       68.9562010      443.01810880    0.00000000
                                                     2       13.5792838      145.56964110    0.00000000
                                      P - D
                                                     0       69.0181506        5.00000000    0.00000000
                                                     1      275.5955596        4.98828240    0.00000000
                                                     2       47.1315453      256.69458530    0.00000000
                                                     2       12.9874075       78.47544500    0.00000000
   44         17
                                   No pseudopotential on this center.
   45          6
                                   No pseudopotential on this center.
   46          6
                                   No pseudopotential on this center.
   47          1
                                   No pseudopotential on this center.
   48          1
                                   No pseudopotential on this center.
   49          1
                                   No pseudopotential on this center.
   50          6
                                   No pseudopotential on this center.
   51          1
                                   No pseudopotential on this center.
   52          1
                                   No pseudopotential on this center.
   53          1
                                   No pseudopotential on this center.
   54          6
                                   No pseudopotential on this center.
   55          1
                                   No pseudopotential on this center.
   56          1
                                   No pseudopotential on this center.
   57          1
                                   No pseudopotential on this center.
   58          6
                                   No pseudopotential on this center.
   59          6
                                   No pseudopotential on this center.
   60          1
                                   No pseudopotential on this center.
   61          1
                                   No pseudopotential on this center.
   62          1
                                   No pseudopotential on this center.
   63          6
[...]
 01369,-0.00001754,-0.00000814,0.00000218,-0.00000182,0.00000300,0.0000
 1195,-0.00002169,0.00002409,-0.00004111,0.00000653,-0.00000799,0.00001
 196,-0.00001042,-0.00000696,0.00000525,0.00000201,-0.00000544,0.000002
 13,0.00000937,0.00000126,-0.00000284,-0.00000126,0.00000536,-0.0000016
 3,-0.00000020,-0.00000723,0.00000527,0.00002904,-0.00000081,0.00000040
 ,-0.00000199,0.00000702,0.00002124,-0.00001708,0.00001939,0.00001046,-
 0.00001233,0.00003928,-0.00004789,0.00000242,-0.00009351,0.00002889,0.
 00004723,-0.00004769,0.00002940,-0.00001248,0.00000531,-0.00003420,0.0
 0000401,-0.00000398,-0.00000590,0.00000185,0.00000071,0.00000069,-0.00
 000234,-0.00000187,-0.00000157,-0.00000018,0.00000018,-0.00000109,0.00
 000079,0.00000222,0.00000175,-0.00000129,0.00000204,0.00000458,-0.0000
 0057,-0.00000090,0.00000013,0.00000054,0.00000211,0.00000018,-0.000002
 59,-0.00000004,-0.00000091,0.00000091,0.00000267,0.00000185,-0.0000002
 6,-0.00000370,-0.00000598,-0.00000088,0.00000408,0.00000107,-0.0000022
 9,-0.00000172,0.00000164,0.00000416,0.00000304,0.00000059,0.00000785,-
 0.00000237,-0.00000242,-0.00000336,0.00000010,0.00000200,0.00000009,-0
 .00000152,0.00000037,0.00000410,-0.00000091,-0.00000332,0.00000050,-0.
 00000315,-0.00000047,-0.00001265,0.00000598,0.00000196,0.00001311,-0.0
 0000292,0.00000739,-0.00000285,-0.00000533,-0.00000680,0.00000561,0.00
 000199,0.00000063,-0.00000479,0.00000314,-0.00000072,0.00000153,-0.000
 00184,-0.00000279,0.00000005,-0.00000301,0.00000040,0.00000408,-0.0000
 4070,-0.00001506,-0.00000261,0.00002396,-0.00001418,-0.00000374,0.0000
 0950,0.00000847,0.00000092,0.00001191,0.00000576,0.00000200,-0.0000062
 7,-0.00000167,-0.00000033,-0.00000240,0.00001338,0.00000346,-0.0000080
 8,-0.00000512,-0.00000042,-0.00002513,-0.00001058,-0.00000450,0.000005
 71,0.00000417,0.00000180,0.00000203,-0.00000022,0.00000018,0.00000125,
 -0.00002471,-0.00000755,-0.00000183,0.00000414,-0.00000143,-0.00000194
 ,0.00000251,0.00000325,0.00000083,0.00000187,0.00000057,0.00003758,0.0
 0003236,0.00001119,0.00000734,0.00000156,0.00000010,0.00388369,0.00076
 665,-0.00095657,0.00015430,0.00047610,0.00052971,-0.00469658,-0.012938
 61,-0.00754541,-0.00106364,0.00196794,-0.00198788,-0.00013263,-0.00020
 915,0.00024349,-0.02677089,-0.28007649,-0.09746713,-0.00061601,0.00041
 589,0.00143082,0.00227238,-0.00353122,-0.00175310,0.00014049,-0.000285
 29,-0.00012976,0.02747955,0.29402311,0.00000273,0.00000025,-0.00000893
 ,0.00000154,-0.00000107,0.00000548,-0.00000826,0.00000036,0.00001049,-
 0.00001279,0.00000493,-0.00000539,0.00002102,-0.00000905,0.00000355,0.
 00000092,0.00000066,0.00000115,0.00000091,0.00000006,0.00000024,-0.000
 00054,0.00000012,0.00000101,0.00001406,-0.00000433,-0.00000357,0.00000
 744,-0.00000121,0.00001592,-0.00001308,0.00000247,-0.00001672,-0.00000
 034,0.00000211,-0.00000162,0.00000757,-0.00000197,0.00001128,-0.000007
 21,0.00000808,-0.00001212,-0.00001929,0.00001961,0.00000262,-0.0000237
 3,0.00001303,-0.00001994,0.00002799,-0.00000136,-0.00000571,0.00000273
 ,-0.00003125,0.00001665,-0.00002074,0.00003032,-0.00001265,-0.00002233
 ,-0.00004197,-0.00001335,-0.00000256,0.00001816,-0.00000329,0.00001565
 ,0.00007983,-0.00013179,0.00000636,0.00001466,0.00000247,-0.00012687,0
 .00000536,0.00021600,0.00003185,0.00000254,0.00001648,0.00005401,-0.00
 000963,-0.00000328,0.00000656,-0.00000241,0.00001381,-0.00000996,-0.00
 001303,-0.00001218,-0.00000233,0.00000145,-0.00000240,-0.00000383,-0.0
 0000001,0.00000683,-0.00000484,0.00002418,-0.00000875,0.00000568,-0.00
 000758,-0.00000099,0.00000074,-0.00000437,0.00000029,-0.00000326,0.000
 00195,0.00000671,0.00000061,-0.00000128,-0.00000089,0.00000250,-0.0000
 0083,-0.00000030,-0.00000697,0.00000222,0.00001264,0.00000034,-0.00000
 129,-0.00000159,0.00001098,0.00001030,-0.00000530,-0.00000602,0.000001
 85,0.00001020,0.00002009,-0.00002052,-0.00000411,0.00001421,-0.0000075
 2,0.00000309,-0.00001578,0.00001267,-0.00001087,0.00000268,-0.00001677
 ,-0.00000197,-0.00000104,-0.00000390,0.00000265,-0.00000025,0.00000123
 ,-0.00000098,-0.00000086,-0.00000123,0.00000010,-0.00000054,-0.0000001
 2,-0.00000011,0.00000169,0.00000088,-0.00000079,0.00000067,0.00000262,
 -0.00000083,-0.00000051,-0.00000046,0.00000024,0.00000153,0.00000008,-
 0.00000133,-0.00000051,0.00000007,0.00000022,0.00000099,0.00000111,-0.
 00000046,-0.00000102,-0.00000260,0.00000117,0.00000267,0.00000072,-0.0
 0000164,-0.00000102,-0.00000008,0.00000122,0.00000358,0.00000453,0.000
 00210,0.00000044,-0.00000250,-0.00000231,0.00000017,0.00000068,0.00000
 037,0.00000050,0.00000125,-0.00000055,-0.00000084,-0.00000259,-0.00000
 003,-0.00000152,-0.00000141,0.00000251,0.00000017,0.00000197,-0.000001
 43,-0.00000040,0.00000215,0.00000011,-0.00000131,-0.00000227,-0.000001
 63,-0.00000124,-0.00000047,-0.00000465,0.00000130,0.00000268,0.0000027
 5,-0.00000094,-0.00000356,0.,0.00000134,0.00000128,-0.00000009,-0.0000
 0632,-0.00000650,-0.00000203,-0.00000502,0.00000577,-0.00000204,0.0000
 0124,0.00000072,-0.00000152,0.00000766,-0.00000144,-0.00000484,-0.0000
 0256,-0.00000288,0.00000314,0.00000248,0.00000613,0.00000024,-0.000002
 15,-0.00000314,0.00000075,-0.00001493,-0.00000700,-0.00000043,-0.00000
 028,0.00000072,0.00000321,0.00000145,-0.00000074,0.00000093,-0.0000002
 9,-0.00001202,0.00000064,-0.00000161,0.00000269,-0.00000076,-0.0000006
 9,0.00000146,-0.00000034,0.00000096,0.00000080,0.00000031,0.00002072,0
 .00001483,0.00000267,0.00000375,0.00000078,0.00000108,-0.00213661,-0.0
 0152221,0.00595110,0.00023786,0.00049487,-0.00054866,-0.00112585,0.001
 77319,0.00367288,-0.00389086,-0.00169859,0.00455917,0.00034818,0.00027
 779,-0.00080109,-0.01604414,-0.09736985,-0.07633692,0.00135383,0.00129
 766,-0.00317319,-0.00009307,-0.01094033,-0.00049036,-0.00004757,-0.000
 52798,-0.00003865,0.02005118,0.10677829,0.06986593,-0.00000791,-0.0000
 0152,0.00001691,0.00000464,-0.00000145,-0.00000949,0.00000011,0.000003
 53,-0.00001034,0.00002162,-0.00000367,0.00000511,-0.00002741,0.0000121
 7,-0.00000972,-0.00000144,-0.00000003,-0.00000216,-0.00000125,0.000000
 13,-0.00000018,0.00000078,0.00000113,-0.00000167,-0.00001039,0.0000019
 6,-0.00000091,0.00001237,-0.00000089,-0.00001279,0.00001225,-0.0000025
 2,0.00001445,0.00000127,-0.00000010,-0.00000029,-0.00002422,0.00000187
 ,-0.00001288,0.00001071,-0.00001134,0.00002146,0.00002442,-0.00002558,
 0.00000168,-0.00002818,-0.00000226,0.00003244,-0.00002950,0.00000586,0
 .00000280,0.00000124,0.00002699,-0.00001708,0.00001547,0.00000483,-0.0
 0001730,0.00001458,-0.00000099,-0.00001218,0.00000389,0.00002725,-0.00
 001393,0.00002705,-0.00002924,-0.00000546,-0.00000128,0.00000281,-0.00
 002654,0.00008423,-0.00007506,0.00039016,0.00000177,-0.00003958,-0.000
 05275,-0.00004416,0.00000872,-0.00001711,-0.00000651,0.00000385,0.0000
 0261,0.00000183,0.00000910,0.00001459,0.00000321,-0.00000146,-0.000002
 45,0.00001743,-0.00000813,0.00003591,-0.00000952,0.00001064,0.00000207
 ,-0.00000183,-0.00000146,0.00000557,0.00000322,0.00000059,-0.00000196,
 0.00000430,-0.00000261,-0.00000738,-0.00000068,0.00000187,0.00000104,-
 0.00000315,0.00000064,0.00000056,0.00000666,-0.00000386,-0.00001376,-0
 .00000007,0.00000085,0.00000161,0.00000045,-0.00002182,0.00001562,-0.0
 0000777,-0.00001213,0.00000460,-0.00002545,0.00002628,0.00000248,0.000
 03057,-0.00000825,-0.00002333,0.00002414,-0.00001334,0.00001152,-0.000
 00208,0.00002709,0.00000186,0.00000181,0.00000350,-0.00000124,0.000000
 22,-0.00000080,0.00000078,0.00000100,0.00000072,0.00000061,-0.00000017
 ,0.00000091,-0.00000035,-0.00000119,-0.00000118,0.00000077,-0.00000101
 ,-0.00000269,0.00000016,0.00000070,0.00000028,-0.00000008,-0.00000138,
 -0.00000025,0.00000155,-0.00000004,0.00000065,-0.00000053,-0.00000114,
 -0.00000134,-0.00000074,0.00000130,0.00000311,0.00000053,-0.00000211,-
 0.00000088,0.00000118,0.00000111,-0.00000028,-0.00000184,-0.00000399,-
 0.00000366,-0.00001030,0.00000180,0.00000438,0.00000462,-0.00000036,-0
 .00000146,-0.00000014,0.00000039,-0.00000099,-0.00000140,0.00000085,0.
 00000381,-0.00000079,0.00000125,0.00000101,0.00000420,-0.00000120,-0.0
 0000061,-0.00000702,0.00000131,-0.00000379,0.00000049,0.00000255,0.000
 00457,-0.00000105,-0.00000191,0.00000073,0.00000444,-0.00000157,-0.000
 00141,-0.00000220,0.00000190,0.00000322,0.00000017,0.00000061,-0.00000
 099,-0.00000136,0.00001502,0.00001206,0.00000653,0.00000270,-0.0000028
 1,-0.00000336,-0.00000229,-0.00000397,-0.00000039,-0.00000995,0.000004
 93,0.00000075,0.00000114,0.00000517,0.00000526,-0.00000326,-0.00000852
 ,-0.00000210,0.00000335,0.00000188,0.00000003,0.00002575,0.00001052,0.
 00000425,-0.00000106,-0.00000219,-0.00000084,-0.00000242,0.00000036,-0
 .00000013,0.00000084,0.00001843,0.00000537,0.00000191,-0.00000288,0.00
 000035,0.00000165,-0.00000223,-0.00000167,-0.00000165,-0.00000129,-0.0
 0000054,-0.00003361,-0.00002409,-0.00000807,-0.00000400,0.00000062,-0.
 00000173,-0.00008106,-0.00073917,0.00006050,0.00179854,-0.00032199,-0.
 00188107,-0.00229575,-0.00217056,-0.00390663,0.00534557,-0.00448262,-0
 .00086524,0.00015240,-0.00020814,-0.00011484,-0.01388194,0.01803563,0.
 00035717,-0.00081765,0.00087681,0.00001028,-0.20859714,0.13515833,-0.0
 1310703,0.00013041,-0.00026320,0.00132375,0.00067009,-0.00043627,0.001
 39118,0.21748626,0.00000665,0.00000001,-0.00001167,-0.00000705,0.00000
 204,0.00000565,0.00000559,-0.00000397,0.00000602,-0.00001250,-0.000000
 11,0.00000022,0.00001375,-0.00000635,0.00000765,0.00000104,-0.00000023
 ,0.00000165,0.00000103,0.00000039,0.00000019,-0.00000035,-0.00000085,0
 .00000136,0.00000067,0.00000001,0.00000308,-0.00001956,-0.00000111,0.0
 0000515,-0.00000394,-0.00000035,-0.00000307,-0.00000033,0.00000041,0.0
 0000172,0.00000718,0.00000935,0.00000567,-0.00000218,0.00000651,-0.000
 01192,-0.00001466,0.00001908,-0.00000883,0.00005867,-0.00000688,-0.000
 03733,0.00002487,-0.00000581,0.00000133,-0.00001049,-0.00001423,0.0000
 1753,0.00001373,-0.00002217,0.00000344,-0.00003898,-0.00005141,-0.0000
 2883,0.00000024,0.00004700,0.00001388,0.00001628,-0.00001781,0.0000305
 6,0.00001061,0.00006216,-0.00002692,0.00002389,-0.00004829,0.00026143,
 0.00002376,-0.00003836,-0.00002567,0.00000453,0.00003275,0.00001826,0.
 00000425,-0.00000158,-0.00000287,0.00001310,-0.00000742,-0.00000353,-0
 .00000350,0.00000064,-0.00000335,0.00001926,-0.00000838,0.00000641,0.0
 0003755,-0.00004787,0.00000797,0.00000767,0.00001634,0.00000439,-0.000
 00671,-0.00000397,0.00000664,-0.00000261,0.00000147,0.00000452,0.00000
 051,-0.00000143,-0.00000069,0.00000233,-0.00000050,-0.00000022,-0.0000
 0341,0.00000178,0.00001064,-0.00000013,0.00000010,-0.00000072,-0.00000
 506,0.00002042,-0.00002009,0.00003813,0.00001794,-0.00003593,0.0000179
 3,-0.00002066,0.00000052,-0.00007207,0.00002250,0.00002951,-0.00001581
 ,0.00001759,0.00000795,0.00000183,-0.00001638,0.00000169,-0.00000172,-
 0.00000170,0.00000037,0.00000007,0.00000012,-0.00000062,-0.00000067,-0
 .00000039,-0.00000047,0.00000035,-0.00000070,0.00000049,0.00000060,0.0
 0000083,-0.00000046,0.00000074,0.00000173,0.00000004,-0.00000052,0.000
 00002,0.00000002,0.00000077,0.00000019,-0.00000103,0.00000024,-0.00000
 065,0.00000053,0.00000094,0.00000066,0.00000031,-0.00000110,-0.0000024
 5,-0.00000098,0.00000126,0.00000055,-0.00000060,-0.00000084,0.00000079
 ,0.00000167,0.00001963,-0.00000290,0.00001243,-0.00001065,-0.00000242,
 -0.00000304,-0.00000106,0.00000246,-0.00000145,-0.00000075,-0.00000060
 ,0.00000644,0.00000001,-0.00000403,0.00000106,-0.00001134,0.00000761,-
 0.00003653,0.00001063,0.00000833,0.00002037,-0.00000423,0.00000340,0.0
 0000166,-0.00000271,-0.00001165,0.00001199,0.00000430,0.00000208,-0.00
 000120,0.00000983,-0.00000344,-0.00000784,-0.00000389,0.00000020,-0.00
 000044,-0.00000524,-0.00000425,0.00001208,-0.00000717,-0.00001012,0.00
 000039,0.00000308,-0.00000132,0.00000086,0.00000182,0.00000184,0.00000
 003,0.00000524,-0.00000066,0.00000040,-0.00000050,0.00000004,-0.000000
 34,0.00000078,0.00000512,0.00000174,-0.00000262,-0.00000144,-0.0000005
 4,-0.00001405,-0.00000579,-0.00000226,0.00000031,0.00000126,-0.0000004
 5,0.00000128,-0.00000020,-0.00000017,-0.00000085,-0.00000876,-0.000003
 54,-0.00000091,0.00000125,0.00000017,-0.00000099,0.00000125,0.00000106
 ,0.00000096,0.00000070,0.00000024,0.00001806,0.00001233,0.00000460,0.0
 0000308,0.00000119,-0.00000231,-0.00085971,-0.00021955,-0.00000198,-0.
 00130111,-0.00298498,-0.00408934,-0.00112938,0.00104295,-0.00235084,0.
 02161151,-0.01195200,0.00235167,0.00104439,-0.00069105,0.00005371,-0.0
 0830922,0.00797815,-0.00122596,-0.00043378,0.00026373,-0.00010704,0.13
 531863,-0.16419195,0.00080183,-0.00060719,0.00064384,0.00146289,-0.000
 10975,0.00020412,0.00135719,-0.14537226,0.16996384,-0.00000364,0.00000
 137,0.00000164,0.00000955,-0.00000318,0.00000108,-0.00001433,0.0000038
 6,0.00000647,-0.00000642,0.00000415,-0.00000543,0.00001475,-0.00000451
 ,-0.00000542,0.00000041,0.00000079,-0.00000007,-0.00000009,-0.00000065
 ,-0.00000012,-0.00000019,0.00000039,-0.00000019,0.00001701,-0.00000501
 ,-0.00000560,0.00002022,-0.00000211,0.00001246,-0.00001074,0.00000261,
 -0.00001487,-0.00000022,0.00000121,-0.00000257,0.00000971,-0.00001430,
 0.00001260,-0.00001220,0.00000298,-0.00000261,-0.00000893,-0.00000062,
 0.00001859,-0.00005997,0.00001502,-0.00000415,-0.00000312,0.00000585,-
 0.00000908,0.00001019,-0.00000623,0.00001362,-0.00003180,0.00005085,-0
 .00000166,0.00000192,0.00003781,0.00004208,0.00002010,-0.00007275,-0.0
 0003481,-0.00008089,-0.00000587,-0.00002853,-0.00001895,0.00003180,0.0
 0006331,0.00007949,0.00046342,-0.00069327,0.00009444,0.00002803,0.0000
 5838,0.00003768,0.00001723,-0.00000226,-0.00000289,0.00000189,0.000004
 25,-0.00000421,-0.00001702,-0.00001136,0.00000165,0.00000141,0.0000062
 9,-0.00003509,0.00002430,0.00000150,-0.00001902,0.00003306,-0.00001963
 ,-0.00000206,-0.00001029,-0.00000360,0.00000260,-0.00000081,0.00000046
 ,-0.00000117,0.00000120,0.00000222,-0.00000001,0.,-0.00000028,0.000000
 16,-0.00000002,-0.00000036,-0.00000358,0.00000085,-0.00000129,0.000000
 42,-0.00000120,-0.00000079,-0.00001352,0.00000713,-0.00000009,0.000005
 40,0.00001064,-0.00001923,0.00000293,0.00000079,-0.00000465,0.00005969
 ,-0.00001841,0.00000237,0.00000717,-0.00000633,-0.00001554,0.00000101,
 -0.00000031,-0.00000185,0.00000037,-0.00000120,0.00000141,-0.00000010,
 0.00000058,-0.00000033,0.,-0.00000046,0.00000018,-0.00000046,0.0000002
 6,-0.00000026,0.00000053,0.00000011,-0.00000012,0.00000003,0.00000060,
 -0.00000043,-0.00000011,-0.00000033,0.00000008,0.00000047,-0.00000002,
 -0.00000018,-0.00000035,0.00000032,-0.00000013,0.00000035,0.00000014,-
 0.00000058,-0.00000010,-0.00000027,0.00000090,0.00000085,0.00000024,-0
 .00000038,-0.00000030,-0.00000043,0.00000007,0.00000866,0.00000244,-0.
 00000640,-0.00000361,-0.00000045,0.00000051,0.00000115,-0.00000022,0.0
 0000024,0.00000051,0.00000043,-0.00000027,-0.00000015,-0.00000230,0.00
 000002,-0.00000439,-0.00000409,-0.00000824,0.00000341,0.00000954,0.000
 00688,0.00000071,0.00000012,0.00000073,-0.00000018,-0.00000664,0.00000
 331,-0.00000151,-0.00000135,0.00000213,0.00000200,0.00000212,0.0000032
 3,0.00000044,-0.00000413,-0.00000041,0.00000168,0.00000274,-0.00000300
 ,-0.00000577,0.00001571,0.00000074,0.00000130,-0.00000073,-0.00000318,
 -0.00000243,-0.00000280,0.00000011,0.00000103,0.00000155,-0.00000186,-
 0.00000070,0.00000079,0.00000324,-0.00000060,0.00000168,-0.00000090,0.
 00000004,-0.00000075,0.00000130,-0.00000034,0.00000032,0.00000114,-0.0
 0000039,-0.00000047,0.00000140,-0.00000023,-0.00000035,0.00000015,-0.0
 0000013,0.00000005,0.00000203,-0.00000029,0.00000042,-0.00000020,0.000
 00021,0.00000006,-0.00000075,0.00000002,-0.00000002,0.00000007,0.00000
 057,-0.00000031,-0.00000109,0.00000548,0.00000030,0.00000348,0.0000813
 6,-0.00033227,-0.00103587,-0.00214958,-0.00365001,0.00432361,-0.003583
 69,-0.00258185,0.00434637,0.00867162,-0.00744597,0.00367152,0.00036702
 ,-0.00047537,0.00017338,-0.00877409,0.00821793,0.00313982,-0.00045218,
 0.00035679,0.00017545,-0.01345467,0.00097341,-0.03877369,0.00129199,0.
 00159539,-0.00264912,0.00150674,0.00125987,-0.00272705,0.01642435,0.00
 148984,0.02999293\\-0.00000397,-0.00000296,0.00000015,0.00000056,-0.00
 000084,0.00000243,-0.00000590,-0.00000074,0.00000504,0.00001515,0.0000
 0029,-0.00000545,0.00001191,0.00000400,-0.00000201,0.00000122,-0.00000
 024,-0.00000328,-0.00000311,0.00000032,-0.00000103,0.00000134,-0.00000
 392,-0.00000453,0.00000382,-0.00000037,0.00000012,-0.00000090,0.000001
 16,0.00001459,-0.00000123,-0.00000026,-0.00000618,0.00000226,0.0000006
 3,-0.00000182,-0.00001316,0.00000301,-0.00000623,-0.00000706,-0.000011
 91,-0.00000459,-0.00002342,0.00001310,0.00000540,0.00001829,-0.0000020
 7,-0.00002393,-0.00000218,-0.00000997,-0.00000860,-0.00001356,-0.00001
 585,0.00002467,-0.00001043,0.00001674,-0.00000116,0.00001517,-0.000006
 09,0.00001677,-0.00001045,-0.00000011,-0.00000360,0.00000895,-0.000003
 13,0.00000355,0.00000227,0.00000442,0.00000090,0.00002185,-0.00000226,
 0.00000246,-0.00000587,0.00000174,-0.00000159,0.00000839,-0.00000615,-
 0.00001797,0.00000196,0.00000122,0.00000229,-0.00000732,-0.00000372,-0
 .00000057,-0.00000448,-0.00000052,-0.00000077,0.00000327,-0.00000245,-
 0.00000101,0.00000278,0.00000240,0.00000324,-0.00000054,-0.00000144,0.
 00000063,0.00000087,0.00000262,-0.00000014,0.00000049,0.00000051,-0.00
 000660,-0.00000271,0.00000042,-0.00000322,-0.00000566,-0.00000389,0.00
 000068,0.00000510,0.00000456,0.00000140,-0.00000420,0.00000219,0.00000
 372,0.00000399,0.00000886,-0.00000440,0.00000130,-0.00000223,0.0000045
 0,0.00001600,-0.00001418,0.00000521,-0.00001142,0.00000281,0.00000488,
 -0.00001366,0.00002390,-0.00000882,0.00000222,-0.00000725,0.00000664,0
 .00000123,0.00000493,-0.00000007,-0.00000293,-0.00000919,-0.00000669,0
 .00000147,0.00000320,0.00000073,-0.00000197,0.00000141,-0.00000447,-0.
 00000199,-0.00000037,0.00000280,0.00000056,-0.00000342,-0.00000467,0.0
 0000260,0.00000049,0.00000075,-0.00000160,-0.00000260,0.00000030,-0.00
 000322,0.00000057,-0.00000073,0.00000128,-0.00000078,-0.00000065,0.000
 00065,-0.00000060,0.00000008,-0.00000118,-0.00000383,0.00000075,0.0000
 0097,0.00000144,0.00000280,-0.00000122,-0.00000025,-0.00000177,0.00000
 014,-0.00000055,0.00000062,-0.00000311,0.00000092,-0.00000058,0.000001
 19,0.00000004,-0.00000217,0.00000029,0.00000366,0.00000158,0.00000147,
 -0.00000109,0.00000079,-0.00000106,-0.00000064,0.00000194,-0.00000518,
 0.00000085,-0.00000118,-0.00000041,0.00000425,0.00000025,0.00000058,0.
 00000124,0.00000110,-0.00000071,-0.00000005,0.00000251,-0.00000010,0.0
 0000427,0.00000127,0.00000075,0.00000170,-0.00000014,0.00000086,-0.000
 00104,0.00000130,0.00000182,0.00000028,-0.00000233,-0.00000153,0.00000
 045,0.00000190,0.00000711,0.00000179,0.00000054,0.00000348,-0.00000086
 ,0.00000086,0.00001036,-0.00000224,0.00000106,-0.00000109,0.00000431,-
 0.00000397,-0.00001804,-0.00000561,-0.00000042,-0.00000078,-0.00000333
 ,0.00000073,-0.00000454,-0.00000124,0.00000050,-0.00000353,0.00000792,
 0.00000387,0.00000327,-0.00000396,0.00000115,0.00000360,-0.00000351,-0
 .00000245,-0.00000139,-0.00000316,-0.00000021,0.00001335,-0.00000316,-
 0.00000231,-0.00000402,0.00000317,0.00000315,-0.00000113,-0.00000183,0
 .00000013,-0.00000036,-0.00000020,0.00000088,0.00000163,0.00000335,0.0
 0000070,-0.00000155,0.00000049,-0.00000038,-0.00000038,0.00000573,0.00
 000179,0.00000175,0.00000286,0.00000225,-0.00000149,-0.00000079,-0.000
 00041,-0.00000082,0.00000288,0.00000118,0.00000329,0.00000231,0.000002
 47,0.00000047,-0.00000221,-0.00000035,0.00000319,-0.00000035,0.0000014
 3\\\@


 TOM, TOM, THE BURGLAR'S SON
 STOLE A MACHINE AND AWAY HE RUN
 THE JOB WAS NEAT, BUT TOM GOT BEAT
 BY THE TIME HE GOT HOME IT WAS OBSOLETE.
 Job cpu time:       1 days 14 hours  7 minutes 27.6 seconds.
 Elapsed time:       0 days  3 hours 11 minutes  1.5 seconds.
 File lengths (MBytes):  RWF=  18883 Int=      0 D2E=      0 Chk=    136 Scr=      1
 Normal termination of Gaussian 16 at Mon May 16 19:09:45 2022.
