 Entering Gaussian System, Link 0=g16
 Input=Pro_R_E_e4.com
 Output=Pro_R_E_e4.log
 Initial command:
 /apps/gaussian16/B.01/AVX2/g16/l1.exe "/tmp/49722046/Gau-21272.inp" -scrdir="/tmp/49722046/"
 Entering Link 1 = /apps/gaussian16/B.01/AVX2/g16/l1.exe PID=     21274.
  
 Copyright (c) 1988-2017, Gaussian, Inc.  All Rights Reserved.
  
 This is part of the Gaussian(R) 16 program.  It is based on
 the Gaussian(R) 09 system (copyright 2009, Gaussian, Inc.),
 the Gaussian(R) 03 system (copyright 2003, Gaussian, Inc.),
 the Gaussian(R) 98 system (copyright 1998, Gaussian, Inc.),
 the Gaussian(R) 94 system (copyright 1995, Gaussian, Inc.),
 the Gaussian 92(TM) system (copyright 1992, Gaussian, Inc.),
 the Gaussian 90(TM) system (copyright 1990, Gaussian, Inc.),
 the Gaussian 88(TM) system (copyright 1988, Gaussian, Inc.),
 the Gaussian 86(TM) system (copyright 1986, Carnegie Mellon
 University), and the Gaussian 82(TM) system (copyright 1983,
 Carnegie Mellon University). Gaussian is a federally registered
 trademark of Gaussian, Inc.
  
 This software contains proprietary and confidential information,
 including trade secrets, belonging to Gaussian, Inc.
  
 This software is provided under written license and may be
 used, copied, transmitted, or stored only in accord with that
 written license.
  
 The following legend is applicable only to US Government
 contracts under FAR:
  
                    RESTRICTED RIGHTS LEGEND
  
 Use, reproduction and disclosure by the US Government is
 subject to restrictions as set forth in subparagraphs (a)
 and (c) of the Commercial Computer Software - Restricted
 Rights clause in FAR 52.227-19.
  
 Gaussian, Inc.
 340 Quinnipiac St., Bldg. 40, Wallingford CT 06492
  
  
 ---------------------------------------------------------------
 Warning -- This program may not be used in any manner that
 competes with the business of Gaussian, Inc. or will provide
 assistance to any competitor of Gaussian, Inc.  The licensee
 of this program is prohibited from giving any competitor of
 Gaussian, Inc. access to this program.  By using this program,
 the user acknowledges that Gaussian, Inc. is engaged in the
 business of creating and licensing software in the field of
 computational chemistry and represents and warrants to the
 licensee that it is not a competitor of Gaussian, Inc. and that
 it will not use this program in any manner prohibited above.
 ---------------------------------------------------------------
  

 Cite this work as:
 Gaussian 16, Revision B.01,
 M. J. Frisch, G. W. Trucks, H. B. Schlegel, G. E. Scuseria, 
 M. A. Robb, J. R. Cheeseman, G. Scalmani, V. Barone, 
 G. A. Petersson, H. Nakatsuji, X. Li, M. Caricato, A. V. Marenich, 
 J. Bloino, B. G. Janesko, R. Gomperts, B. Mennucci, H. P. Hratchian, 
 J. V. Ortiz, A. F. Izmaylov, J. L. Sonnenberg, D. Williams-Young, 
 F. Ding, F. Lipparini, F. Egidi, J. Goings, B. Peng, A. Petrone, 
 T. Henderson, D. Ranasinghe, V. G. Zakrzewski, J. Gao, N. Rega, 
 G. Zheng, W. Liang, M. Hada, M. Ehara, K. Toyota, R. Fukuda, 
 J. Hasegawa, M. Ishida, T. Nakajima, Y. Honda, O. Kitao, H. Nakai, 
 T. Vreven, K. Throssell, J. A. Montgomery, Jr., J. E. Peralta, 
 F. Ogliaro, M. J. Bearpark, J. J. Heyd, E. N. Brothers, K. N. Kudin, 
 V. N. Staroverov, T. A. Keith, R. Kobayashi, J. Normand, 
 K. Raghavachari, A. P. Rendell, J. C. Burant, S. S. Iyengar, 
 J. Tomasi, M. Cossi, J. M. Millam, M. Klene, C. Adamo, R. Cammi, 
 J. W. Ochterski, R. L. Martin, K. Morokuma, O. Farkas, 
 J. B. Foresman, and D. J. Fox, Gaussian, Inc., Wallingford CT, 2016.
 
 ******************************************
 Gaussian 16:  ES64L-G16RevB.01 20-Dec-2017
                 7-Jun-2022 
 ******************************************
 %nprocshared=12
 Will use up to   12 processors via shared memory.
 %mem=24GB
 %chk=Pro_R_E_e4.chk
 ----------------------------------------------------------------------
 #opt=(MaxCycles=500) freq=noraman bp86/gen pseudo=read integral=ultraf
 ine temperature=308 scrf=(read) scf=xqc
 ----------------------------------------------------------------------
 1/6=500,18=20,19=15,26=6,38=1,40=2,112=308000/1,3;
 2/9=110,12=2,17=6,18=5,40=1/2;
 3/5=7,11=2,16=1,17=8,25=1,30=1,70=2203,71=1,74=404,75=-5/1,2,3;
 4//1;
 5/5=2,8=3,13=1,38=5/2,8;
 6/7=2,8=2,9=2,10=2,28=1/1;
 7//1,2,3,16;
 1/6=500,18=20,19=15,26=6/3(2);
 2/9=110/2;
 99//99;
 2/9=110/2;
 3/5=7,6=1,11=2,16=1,17=8,25=1,30=1,70=2205,71=1,74=404,75=-5,82=7/1,2,3;
 4/5=5,16=3,69=1/1;
 5/5=2,8=3,13=1,38=5/2,8;
 7//1,2,3,16;
 1/6=500,18=20,19=15,26=6/3(-5);
 2/9=110/2;
 6/7=2,8=2,9=2,10=2,19=2,28=1/1;
 99/9=1/99;
 -------------------
 Title Card Required
 -------------------
 Symbolic Z-matrix:
 Charge =  0 Multiplicity = 4
 C                    -1.76643  -3.19712   2.04517 
 C                    -0.78912  -4.16229   1.79701 
 C                     0.4506   -3.7724    1.20624 
 C                     0.59417  -2.38901   0.795 
 C                    -1.52938  -1.86271   1.64667 
 H                     1.48199  -5.69902   1.29775 
 H                    -2.69428  -3.44452   2.58067 
 H                    -0.93639  -5.20786   2.10868 
 C                     1.57034  -4.63554   1.02709 
 C                     2.84279  -2.74833   0.21542 
 C                     2.7766   -4.11886   0.54787 
 H                     3.6704   -4.74978   0.44001 
 N                     1.7629   -1.91832   0.28965 
 N                    -0.41219  -1.48532   0.95218 
 C                    -2.3289   -0.72507   2.07833 
 C                     4.05092  -2.04661  -0.20328 
 N                    -2.02781   0.50123   1.73768 
 N                     4.05847  -0.75104  -0.372 
 Ni                    2.05191  -0.06086  -0.44832 
 C                    -0.32685   0.54271  -1.87445 
 C                    -1.68012   0.69362  -1.50271 
 C                     1.79546  -0.34772  -2.40502 
 H                     2.57384  -1.01381  -2.81278 
 C                     0.31835  -0.6868   -2.51863 
 H                    -0.0029   -0.74249  -3.59336 
 C                     1.95723   1.04934  -2.2114 
 H                     2.88248   1.59851  -2.45022 
 C                     0.58582   1.71288  -2.33023 
 H                     0.36995   1.79826  -3.43187 
 H                    -2.01945   1.74346  -1.41465 
 C                     6.18325  -1.72212  -0.83023 
 H                     6.53314  -1.98449  -1.84838 
 H                     7.04105  -1.78819  -0.13102 
 C                    -3.84907   0.42368   3.25726 
 H                    -3.96212   0.52657   4.35265 
 H                    -4.84906   0.49731   2.77882 
 C                    -2.80472   1.39244   2.63595 
 H                    -2.09302   1.72781   3.42836 
 C                     5.42296  -0.35721  -0.76889 
 H                     5.37615   0.10006  -1.78356 
 O                    -3.31895  -0.90564   2.98421 
 O                     5.20217  -2.72075  -0.41955 
 Ni                   -0.52888   0.44248   0.23516 
 Cl                    1.47703   1.27552   1.45687 
 C                    -3.38473   2.6916    2.00448 
 C                    -4.39273   2.38027   0.88139 
 H                    -3.94052   1.72943   0.10825 
 H                    -5.30402   1.87044   1.25851 
 H                    -4.72459   3.31967   0.39201 
 C                    -4.08335   3.49479   3.12669 
 H                    -3.38334   3.72371   3.95838 
 H                    -4.46004   4.46046   2.72963 
 H                    -4.95469   2.95198   3.55102 
 C                    -2.21684   3.52639   1.4423 
 H                    -1.68247   2.98923   0.63287 
 H                    -2.58913   4.48452   1.02415 
 H                    -1.47424   3.76456   2.23216 
 C                     6.04977   0.71402   0.18607 
 C                     6.00972   0.22146   1.64683 
 H                     4.96289   0.0441    1.96912 
 H                     6.58043  -0.72066   1.79175 
 H                     6.45512   0.98001   2.3236 
 C                     5.23947   2.02167   0.06275 
 H                     5.23717   2.39553  -0.98361 
 H                     4.18719   1.87435   0.38027 
 H                     5.68659   2.8129    0.70072 
 C                     7.50668   0.97768  -0.25474 
 H                     7.5547    1.3191   -1.31111 
 H                     7.96002   1.77138   0.37495 
 H                     8.14895   0.07682  -0.1574 
 C                    -2.74412  -0.31496  -1.74332 
 C                    -2.59146  -1.71589  -1.60884 
 C                    -4.017     0.1453   -2.18259 
 C                    -3.63072  -2.61404  -1.90712 
 H                    -1.6398   -2.12522  -1.2441 
 C                    -5.06209  -0.73268  -2.484 
 H                    -4.18083   1.22763  -2.31065 
 C                    -4.88079  -2.12904  -2.35158 
 H                    -3.45543  -3.69163  -1.77976 
 H                    -6.0372   -0.35794  -2.83152 
 C                    -5.81964  -4.32382  -2.55395 
 H                    -5.022    -4.71966  -3.22206 
 H                    -5.59912  -4.63656  -1.50853 
 H                    -6.7913   -4.75473  -2.86019 
 O                    -5.95246  -2.91237  -2.66724 
 H                     0.04894  -1.65574  -2.05794 
 C                     0.42583   3.15629  -1.88834 
 C                    -0.56007   3.96034  -2.51028 
 C                     1.27622   3.76311  -0.93988 
 C                    -0.70252   5.32046  -2.18705 
 H                    -1.2101    3.51607  -3.28308 
 C                     1.14261   5.12668  -0.62102 
 H                     2.03784   3.14894  -0.43934 
 C                     0.15326   5.9109   -1.2396 
 H                    -1.47471   5.92536  -2.68939 
 H                     1.82136   5.57943   0.11978 
 H                     0.05344   6.97959  -0.99046 
 

 GradGradGradGradGradGradGradGradGradGradGradGradGradGradGradGradGradGrad
 Berny optimization.
 Initialization pass.
                           ----------------------------
                           !    Initial Parameters    !
                           ! (Angstroms and Degrees)  !
 --------------------------                            --------------------------
 ! Name  Definition              Value          Derivative Info.                !
 --------------------------------------------------------------------------------
 ! R1    R(1,2)                  1.3958         estimate D2E/DX2                !
 ! R2    R(1,5)                  1.4127         estimate D2E/DX2                !
 ! R3    R(1,7)                  1.0995         estimate D2E/DX2                !
 ! R4    R(2,3)                  1.4276         estimate D2E/DX2                !
 ! R5    R(2,8)                  1.1009         estimate D2E/DX2                !
 ! R6    R(3,4)                  1.4504         estimate D2E/DX2                !
 ! R7    R(3,9)                  1.4251         estimate D2E/DX2                !
 ! R8    R(4,13)                 1.3575         estimate D2E/DX2                !
 ! R9    R(4,14)                 1.3617         estimate D2E/DX2                !
 ! R10   R(5,14)                 1.3685         estimate D2E/DX2                !
 ! R11   R(5,15)                 1.4559         estimate D2E/DX2                !
 ! R12   R(6,9)                  1.1009         estimate D2E/DX2                !
 ! R13   R(9,11)                 1.397          estimate D2E/DX2                !
 ! R14   R(10,11)                1.4118         estimate D2E/DX2                !
 ! R15   R(10,13)                1.364          estimate D2E/DX2                !
 ! R16   R(10,16)                1.4585         estimate D2E/DX2                !
 ! R17   R(11,12)                1.0994         estimate D2E/DX2                !
 ! R18   R(13,19)                2.0195         estimate D2E/DX2                !
 ! R19   R(14,43)                2.0601         estimate D2E/DX2                !
 ! R20   R(15,17)                1.3079         estimate D2E/DX2                !
 ! R21   R(15,41)                1.354          estimate D2E/DX2                !
 ! R22   R(16,18)                1.3065         estimate D2E/DX2                !
 ! R23   R(16,42)                1.3515         estimate D2E/DX2                !
 ! R24   R(17,37)                1.4848         estimate D2E/DX2                !
 ! R25   R(17,43)                2.1232         estimate D2E/DX2                !
 ! R26   R(18,19)                2.1233         estimate D2E/DX2                !
 ! R27   R(18,39)                1.4746         estimate D2E/DX2                !
 ! R28   R(19,22)                1.9942         estimate D2E/DX2                !
 ! R29   R(19,26)                2.0857         estimate D2E/DX2                !
 ! R30   R(19,43)                2.7168         estimate D2E/DX2                !
 ! R31   R(19,44)                2.3971         estimate D2E/DX2                !
 ! R32   R(20,21)                1.4115         estimate D2E/DX2                !
 ! R33   R(20,24)                1.5307         estimate D2E/DX2                !
 ! R34   R(20,28)                1.5524         estimate D2E/DX2                !
 ! R35   R(20,43)                2.1216         estimate D2E/DX2                !
 ! R36   R(21,30)                1.1068         estimate D2E/DX2                !
 ! R37   R(21,43)                2.0997         estimate D2E/DX2                !
 ! R38   R(21,71)                1.4857         estimate D2E/DX2                !
 ! R39   R(22,23)                1.1026         estimate D2E/DX2                !
 ! R40   R(22,24)                1.5198         estimate D2E/DX2                !
 ! R41   R(22,26)                1.4197         estimate D2E/DX2                !
 ! R42   R(24,25)                1.1231         estimate D2E/DX2                !
 ! R43   R(24,86)                1.1062         estimate D2E/DX2                !
 ! R44   R(26,27)                1.1021         estimate D2E/DX2                !
 ! R45   R(26,28)                1.5281         estimate D2E/DX2                !
 ! R46   R(28,29)                1.1258         estimate D2E/DX2                !
 ! R47   R(28,87)                1.518          estimate D2E/DX2                !
 ! R48   R(31,32)                1.1081         estimate D2E/DX2                !
 ! R49   R(31,33)                1.1086         estimate D2E/DX2                !
 ! R50   R(31,39)                1.5636         estimate D2E/DX2                !
 ! R51   R(31,42)                1.4589         estimate D2E/DX2                !
 ! R52   R(34,35)                1.106          estimate D2E/DX2                !
 ! R53   R(34,36)                1.111          estimate D2E/DX2                !
 ! R54   R(34,37)                1.5541         estimate D2E/DX2                !
 ! R55   R(34,41)                1.4569         estimate D2E/DX2                !
 ! R56   R(37,38)                1.1166         estimate D2E/DX2                !
 ! R57   R(37,45)                1.5566         estimate D2E/DX2                !
 ! R58   R(39,40)                1.1139         estimate D2E/DX2                !
 ! R59   R(39,58)                1.566          estimate D2E/DX2                !
 ! R60   R(43,44)                2.492          estimate D2E/DX2                !
 ! R61   R(45,46)                1.5409         estimate D2E/DX2                !
 ! R62   R(45,50)                1.5468         estimate D2E/DX2                !
 ! R63   R(45,54)                1.5417         estimate D2E/DX2                !
 ! R64   R(46,47)                1.1072         estimate D2E/DX2                !
 ! R65   R(46,48)                1.1102         estimate D2E/DX2                !
 ! R66   R(46,49)                1.11           estimate D2E/DX2                !
 ! R67   R(50,51)                1.1109         estimate D2E/DX2                !
 ! R68   R(50,52)                1.11           estimate D2E/DX2                !
 ! R69   R(50,53)                1.1108         estimate D2E/DX2                !
 ! R70   R(54,55)                1.1087         estimate D2E/DX2                !
 ! R71   R(54,56)                1.1097         estimate D2E/DX2                !
 ! R72   R(54,57)                1.11           estimate D2E/DX2                !
 ! R73   R(58,59)                1.5421         estimate D2E/DX2                !
 ! R74   R(58,63)                1.5433         estimate D2E/DX2                !
 ! R75   R(58,67)                1.5448         estimate D2E/DX2                !
 ! R76   R(59,60)                1.1096         estimate D2E/DX2                !
 ! R77   R(59,61)                1.111          estimate D2E/DX2                !
 ! R78   R(59,62)                1.1099         estimate D2E/DX2                !
 ! R79   R(63,64)                1.1112         estimate D2E/DX2                !
 ! R80   R(63,65)                1.109          estimate D2E/DX2                !
 ! R81   R(63,66)                1.1104         estimate D2E/DX2                !
 ! R82   R(67,68)                1.1112         estimate D2E/DX2                !
 ! R83   R(67,69)                1.1099         estimate D2E/DX2                !
 ! R84   R(67,70)                1.1106         estimate D2E/DX2                !
 ! R85   R(71,72)                1.4156         estimate D2E/DX2                !
 ! R86   R(71,73)                1.423          estimate D2E/DX2                !
 ! R87   R(72,74)                1.4056         estimate D2E/DX2                !
 ! R88   R(72,75)                1.0983         estimate D2E/DX2                !
 ! R89   R(73,76)                1.3978         estimate D2E/DX2                !
 ! R90   R(73,77)                1.1021         estimate D2E/DX2                !
 ! R91   R(74,78)                1.4126         estimate D2E/DX2                !
 ! R92   R(74,79)                1.0992         estimate D2E/DX2                !
 ! R93   R(76,78)                1.4143         estimate D2E/DX2                !
 ! R94   R(76,80)                1.1009         estimate D2E/DX2                !
 ! R95   R(78,85)                1.3645         estimate D2E/DX2                !
 ! R96   R(81,82)                1.1132         estimate D2E/DX2                !
 ! R97   R(81,83)                1.1133         estimate D2E/DX2                !
 ! R98   R(81,84)                1.1062         estimate D2E/DX2                !
 ! R99   R(81,85)                1.4222         estimate D2E/DX2                !
 ! R100  R(87,88)                1.4161         estimate D2E/DX2                !
 ! R101  R(87,89)                1.411          estimate D2E/DX2                !
 ! R102  R(88,90)                1.4052         estimate D2E/DX2                !
 ! R103  R(88,91)                1.1032         estimate D2E/DX2                !
 ! R104  R(89,92)                1.4067         estimate D2E/DX2                !
 ! R105  R(89,93)                1.099          estimate D2E/DX2                !
 ! R106  R(90,94)                1.4066         estimate D2E/DX2                !
 ! R107  R(90,95)                1.102          estimate D2E/DX2                !
 ! R108  R(92,94)                1.4059         estimate D2E/DX2                !
 ! R109  R(92,96)                1.102          estimate D2E/DX2                !
 ! R110  R(94,97)                1.1019         estimate D2E/DX2                !
 ! A1    A(2,1,5)              119.0472         estimate D2E/DX2                !
 ! A2    A(2,1,7)              121.4574         estimate D2E/DX2                !
 ! A3    A(5,1,7)              119.4427         estimate D2E/DX2                !
 ! A4    A(1,2,3)              119.5223         estimate D2E/DX2                !
 ! A5    A(1,2,8)              120.8455         estimate D2E/DX2                !
 ! A6    A(3,2,8)              119.5182         estimate D2E/DX2                !
 ! A7    A(2,3,4)              117.6337         estimate D2E/DX2                !
 ! A8    A(2,3,9)              124.6769         estimate D2E/DX2                !
 ! A9    A(4,3,9)              117.6634         estimate D2E/DX2                !
 ! A10   A(3,4,13)             121.4332         estimate D2E/DX2                !
 ! A11   A(3,4,14)             121.812          estimate D2E/DX2                !
 ! A12   A(13,4,14)            116.6888         estimate D2E/DX2                !
 ! A13   A(1,5,14)             122.7264         estimate D2E/DX2                !
 ! A14   A(1,5,15)             124.2154         estimate D2E/DX2                !
 ! A15   A(14,5,15)            112.5361         estimate D2E/DX2                !
 ! A16   A(3,9,6)              119.413          estimate D2E/DX2                !
 ! A17   A(3,9,11)             119.8389         estimate D2E/DX2                !
 ! A18   A(6,9,11)             120.7224         estimate D2E/DX2                !
 ! A19   A(11,10,13)           122.7357         estimate D2E/DX2                !
 ! A20   A(11,10,16)           124.9926         estimate D2E/DX2                !
 ! A21   A(13,10,16)           112.2497         estimate D2E/DX2                !
 ! A22   A(9,11,10)            118.7034         estimate D2E/DX2                !
 ! A23   A(9,11,12)            121.5613         estimate D2E/DX2                !
 ! A24   A(10,11,12)           119.729          estimate D2E/DX2                !
 ! A25   A(4,13,10)            119.3974         estimate D2E/DX2                !
 ! A26   A(4,13,19)            125.3211         estimate D2E/DX2                !
 ! A27   A(10,13,19)           115.2449         estimate D2E/DX2                !
 ! A28   A(4,14,5)             118.6136         estimate D2E/DX2                !
 ! A29   A(4,14,43)            128.5153         estimate D2E/DX2                !
 ! A30   A(5,14,43)            112.857          estimate D2E/DX2                !
 ! A31   A(5,15,17)            121.9383         estimate D2E/DX2                !
 ! A32   A(5,15,41)            119.7139         estimate D2E/DX2                !
 ! A33   A(17,15,41)           117.8799         estimate D2E/DX2                !
 ! A34   A(10,16,18)           121.261          estimate D2E/DX2                !
 ! A35   A(10,16,42)           120.7663         estimate D2E/DX2                !
 ! A36   A(18,16,42)           117.9711         estimate D2E/DX2                !
 ! A37   A(15,17,37)           106.5441         estimate D2E/DX2                !
 ! A38   A(15,17,43)           108.7176         estimate D2E/DX2                !
 ! A39   A(37,17,43)           144.5011         estimate D2E/DX2                !
 ! A40   A(16,18,19)           108.7536         estimate D2E/DX2                !
 ! A41   A(16,18,39)           107.7544         estimate D2E/DX2                !
 ! A42   A(19,18,39)           141.0745         estimate D2E/DX2                !
 ! A43   A(13,19,18)            79.813          estimate D2E/DX2                !
 ! A44   A(13,19,22)           101.9962         estimate D2E/DX2                !
 ! A45   A(13,19,26)           142.3735         estimate D2E/DX2                !
 ! A46   A(13,19,43)            86.705          estimate D2E/DX2                !
 ! A47   A(13,19,44)           100.8369         estimate D2E/DX2                !
 ! A48   A(18,19,22)            96.3175         estimate D2E/DX2                !
 ! A49   A(18,19,26)           104.2591         estimate D2E/DX2                !
 ! A50   A(18,19,43)           161.6016         estimate D2E/DX2                !
 ! A51   A(18,19,44)           112.2891         estimate D2E/DX2                !
 ! A52   A(22,19,43)            98.7045         estimate D2E/DX2                !
 ! A53   A(22,19,44)           146.0171         estimate D2E/DX2                !
 ! A54   A(26,19,43)            94.0672         estimate D2E/DX2                !
 ! A55   A(26,19,44)           111.3596         estimate D2E/DX2                !
 ! A56   A(21,20,24)           126.9307         estimate D2E/DX2                !
 ! A57   A(21,20,28)           124.0823         estimate D2E/DX2                !
 ! A58   A(24,20,28)           103.5386         estimate D2E/DX2                !
 ! A59   A(24,20,43)           114.8762         estimate D2E/DX2                !
 ! A60   A(28,20,43)           112.552          estimate D2E/DX2                !
 ! A61   A(20,21,30)           114.6009         estimate D2E/DX2                !
 ! A62   A(20,21,71)           124.848          estimate D2E/DX2                !
 ! A63   A(30,21,43)           102.4561         estimate D2E/DX2                !
 ! A64   A(30,21,71)           115.928          estimate D2E/DX2                !
 ! A65   A(43,21,71)           116.4568         estimate D2E/DX2                !
 ! A66   A(19,22,23)           111.0371         estimate D2E/DX2                !
 ! A67   A(19,22,24)           103.3226         estimate D2E/DX2                !
 ! A68   A(23,22,24)           121.5791         estimate D2E/DX2                !
 ! A69   A(23,22,26)           124.3653         estimate D2E/DX2                !
 ! A70   A(24,22,26)           109.9077         estimate D2E/DX2                !
 ! A71   A(20,24,22)           101.4789         estimate D2E/DX2                !
 ! A72   A(20,24,25)           108.7834         estimate D2E/DX2                !
 ! A73   A(20,24,86)           115.192          estimate D2E/DX2                !
 ! A74   A(22,24,25)           111.1378         estimate D2E/DX2                !
 ! A75   A(22,24,86)           113.6409         estimate D2E/DX2                !
 ! A76   A(25,24,86)           106.5844         estimate D2E/DX2                !
 ! A77   A(19,26,27)           114.2235         estimate D2E/DX2                !
 ! A78   A(19,26,28)           109.7311         estimate D2E/DX2                !
 ! A79   A(22,26,27)           123.811          estimate D2E/DX2                !
 ! A80   A(22,26,28)           108.3267         estimate D2E/DX2                !
 ! A81   A(27,26,28)           121.3455         estimate D2E/DX2                !
 ! A82   A(20,28,26)           100.2229         estimate D2E/DX2                !
 ! A83   A(20,28,29)           103.399          estimate D2E/DX2                !
 ! A84   A(20,28,87)           124.7025         estimate D2E/DX2                !
 ! A85   A(26,28,29)           106.3255         estimate D2E/DX2                !
 ! A86   A(26,28,87)           119.0017         estimate D2E/DX2                !
 ! A87   A(29,28,87)           101.0996         estimate D2E/DX2                !
 ! A88   A(32,31,33)           108.728          estimate D2E/DX2                !
 ! A89   A(32,31,39)           113.3454         estimate D2E/DX2                !
 ! A90   A(32,31,42)           107.9935         estimate D2E/DX2                !
 ! A91   A(33,31,39)           113.7975         estimate D2E/DX2                !
 ! A92   A(33,31,42)           107.5771         estimate D2E/DX2                !
 ! A93   A(39,31,42)           105.0402         estimate D2E/DX2                !
 ! A94   A(35,34,36)           109.1676         estimate D2E/DX2                !
 ! A95   A(35,34,37)           113.995          estimate D2E/DX2                !
 ! A96   A(35,34,41)           107.9196         estimate D2E/DX2                !
 ! A97   A(36,34,37)           113.0406         estimate D2E/DX2                !
 ! A98   A(36,34,41)           107.8948         estimate D2E/DX2                !
 ! A99   A(37,34,41)           104.4372         estimate D2E/DX2                !
 ! A100  A(17,37,34)           102.6694         estimate D2E/DX2                !
 ! A101  A(17,37,38)           106.0268         estimate D2E/DX2                !
 ! A102  A(17,37,45)           116.7753         estimate D2E/DX2                !
 ! A103  A(34,37,38)           109.3788         estimate D2E/DX2                !
 ! A104  A(34,37,45)           115.5979         estimate D2E/DX2                !
 ! A105  A(38,37,45)           105.9442         estimate D2E/DX2                !
 ! A106  A(18,39,31)           103.1418         estimate D2E/DX2                !
 ! A107  A(18,39,40)           108.4157         estimate D2E/DX2                !
 ! A108  A(18,39,58)           112.8885         estimate D2E/DX2                !
 ! A109  A(31,39,40)           110.0621         estimate D2E/DX2                !
 ! A110  A(31,39,58)           115.2418         estimate D2E/DX2                !
 ! A111  A(40,39,58)           106.9465         estimate D2E/DX2                !
 ! A112  A(15,41,34)           105.6497         estimate D2E/DX2                !
 ! A113  A(16,42,31)           106.0477         estimate D2E/DX2                !
 ! A114  A(14,43,17)            79.606          estimate D2E/DX2                !
 ! A115  A(14,43,19)            81.9743         estimate D2E/DX2                !
 ! A116  A(14,43,20)           112.6365         estimate D2E/DX2                !
 ! A117  A(14,43,21)           115.5345         estimate D2E/DX2                !
 ! A118  A(14,43,44)            95.5429         estimate D2E/DX2                !
 ! A119  A(17,43,19)           148.6286         estimate D2E/DX2                !
 ! A120  A(17,43,20)           140.3174         estimate D2E/DX2                !
 ! A121  A(17,43,21)           101.2646         estimate D2E/DX2                !
 ! A122  A(17,43,44)           102.2446         estimate D2E/DX2                !
 ! A123  A(19,43,20)            70.6184         estimate D2E/DX2                !
 ! A124  A(19,43,21)           109.5591         estimate D2E/DX2                !
 ! A125  A(20,43,44)           113.2674         estimate D2E/DX2                !
 ! A126  A(21,43,44)           143.8159         estimate D2E/DX2                !
 ! A127  A(37,45,46)           111.7652         estimate D2E/DX2                !
 ! A128  A(37,45,50)           107.9004         estimate D2E/DX2                !
 ! A129  A(37,45,54)           108.5166         estimate D2E/DX2                !
 ! A130  A(46,45,50)           109.7704         estimate D2E/DX2                !
 ! A131  A(46,45,54)           109.8269         estimate D2E/DX2                !
 ! A132  A(50,45,54)           108.9975         estimate D2E/DX2                !
 ! A133  A(45,46,47)           111.1339         estimate D2E/DX2                !
 ! A134  A(45,46,48)           112.4674         estimate D2E/DX2                !
 ! A135  A(45,46,49)           110.2384         estimate D2E/DX2                !
 ! A136  A(47,46,48)           107.6085         estimate D2E/DX2                !
 ! A137  A(47,46,49)           108.1637         estimate D2E/DX2                !
 ! A138  A(48,46,49)           107.037          estimate D2E/DX2                !
 ! A139  A(45,50,51)           111.4418         estimate D2E/DX2                !
 ! A140  A(45,50,52)           110.2123         estimate D2E/DX2                !
 ! A141  A(45,50,53)           112.1902         estimate D2E/DX2                !
 ! A142  A(51,50,52)           107.6008         estimate D2E/DX2                !
 ! A143  A(51,50,53)           107.9983         estimate D2E/DX2                !
 ! A144  A(52,50,53)           107.1915         estimate D2E/DX2                !
 ! A145  A(45,54,55)           111.6529         estimate D2E/DX2                !
 ! A146  A(45,54,56)           110.5349         estimate D2E/DX2                !
 ! A147  A(45,54,57)           111.316          estimate D2E/DX2                !
 ! A148  A(55,54,56)           107.752          estimate D2E/DX2                !
 ! A149  A(55,54,57)           107.5184         estimate D2E/DX2                !
 ! A150  A(56,54,57)           107.8975         estimate D2E/DX2                !
 ! A151  A(39,58,59)           110.4107         estimate D2E/DX2                !
 ! A152  A(39,58,63)           108.7069         estimate D2E/DX2                !
 ! A153  A(39,58,67)           108.6771         estimate D2E/DX2                !
 ! A154  A(59,58,63)           109.4322         estimate D2E/DX2                !
 ! A155  A(59,58,67)           110.4451         estimate D2E/DX2                !
 ! A156  A(63,58,67)           109.1331         estimate D2E/DX2                !
 ! A157  A(58,59,60)           110.5299         estimate D2E/DX2                !
 ! A158  A(58,59,61)           112.4007         estimate D2E/DX2                !
 ! A159  A(58,59,62)           110.4192         estimate D2E/DX2                !
 ! A160  A(60,59,61)           108.1319         estimate D2E/DX2                !
 ! A161  A(60,59,62)           108.1042         estimate D2E/DX2                !
 ! A162  A(61,59,62)           107.091          estimate D2E/DX2                !
 ! A163  A(58,63,64)           111.1871         estimate D2E/DX2                !
 ! A164  A(58,63,65)           111.2705         estimate D2E/DX2                !
 ! A165  A(58,63,66)           110.2695         estimate D2E/DX2                !
 ! A166  A(64,63,65)           108.2018         estimate D2E/DX2                !
 ! A167  A(64,63,66)           107.5852         estimate D2E/DX2                !
 ! A168  A(65,63,66)           108.1947         estimate D2E/DX2                !
 ! A169  A(58,67,68)           111.3744         estimate D2E/DX2                !
 ! A170  A(58,67,69)           110.2039         estimate D2E/DX2                !
 ! A171  A(58,67,70)           112.4541         estimate D2E/DX2                !
 ! A172  A(68,67,69)           107.575          estimate D2E/DX2                !
 ! A173  A(68,67,70)           107.911          estimate D2E/DX2                !
 ! A174  A(69,67,70)           107.1033         estimate D2E/DX2                !
 ! A175  A(21,71,72)           125.3943         estimate D2E/DX2                !
 ! A176  A(21,71,73)           118.1014         estimate D2E/DX2                !
 ! A177  A(72,71,73)           116.4786         estimate D2E/DX2                !
 ! A178  A(71,72,74)           122.1708         estimate D2E/DX2                !
 ! A179  A(71,72,75)           119.5921         estimate D2E/DX2                !
 ! A180  A(74,72,75)           118.2289         estimate D2E/DX2                !
 ! A181  A(71,73,76)           122.1528         estimate D2E/DX2                !
 ! A182  A(71,73,77)           119.1079         estimate D2E/DX2                !
 ! A183  A(76,73,77)           118.7265         estimate D2E/DX2                !
 ! A184  A(72,74,78)           120.1121         estimate D2E/DX2                !
 ! A185  A(72,74,79)           118.9426         estimate D2E/DX2                !
 ! A186  A(78,74,79)           120.943          estimate D2E/DX2                !
 ! A187  A(73,76,78)           120.2721         estimate D2E/DX2                !
 ! A188  A(73,76,80)           121.0961         estimate D2E/DX2                !
 ! A189  A(78,76,80)           118.6314         estimate D2E/DX2                !
 ! A190  A(74,78,76)           118.8085         estimate D2E/DX2                !
 ! A191  A(74,78,85)           124.8015         estimate D2E/DX2                !
 ! A192  A(76,78,85)           116.3897         estimate D2E/DX2                !
 ! A193  A(82,81,83)           108.7696         estimate D2E/DX2                !
 ! A194  A(82,81,84)           108.9487         estimate D2E/DX2                !
 ! A195  A(82,81,85)           111.8384         estimate D2E/DX2                !
 ! A196  A(83,81,84)           108.9382         estimate D2E/DX2                !
 ! A197  A(83,81,85)           111.8456         estimate D2E/DX2                !
 ! A198  A(84,81,85)           106.4104         estimate D2E/DX2                !
 ! A199  A(78,85,81)           118.5534         estimate D2E/DX2                !
 ! A200  A(28,87,88)           119.0408         estimate D2E/DX2                !
 ! A201  A(28,87,89)           122.757          estimate D2E/DX2                !
 ! A202  A(88,87,89)           118.0751         estimate D2E/DX2                !
 ! A203  A(87,88,90)           121.2736         estimate D2E/DX2                !
 ! A204  A(87,88,91)           119.2886         estimate D2E/DX2                !
 ! A205  A(90,88,91)           119.4167         estimate D2E/DX2                !
 ! A206  A(87,89,92)           120.7961         estimate D2E/DX2                !
 ! A207  A(87,89,93)           118.9124         estimate D2E/DX2                !
 ! A208  A(92,89,93)           120.2843         estimate D2E/DX2                !
 ! A209  A(88,90,94)           119.9684         estimate D2E/DX2                !
 ! A210  A(88,90,95)           119.8312         estimate D2E/DX2                !
 ! A211  A(94,90,95)           120.193          estimate D2E/DX2                !
 ! A212  A(89,92,94)           120.5183         estimate D2E/DX2                !
 ! A213  A(89,92,96)           119.4788         estimate D2E/DX2                !
 ! A214  A(94,92,96)           120.0028         estimate D2E/DX2                !
 ! A215  A(90,94,92)           119.3646         estimate D2E/DX2                !
 ! A216  A(90,94,97)           120.2839         estimate D2E/DX2                !
 ! A217  A(92,94,97)           120.3499         estimate D2E/DX2                !
 ! D1    D(5,1,2,3)              2.9621         estimate D2E/DX2                !
 ! D2    D(5,1,2,8)            179.0628         estimate D2E/DX2                !
 ! D3    D(7,1,2,3)           -174.381          estimate D2E/DX2                !
 ! D4    D(7,1,2,8)              1.7197         estimate D2E/DX2                !
 ! D5    D(2,1,5,14)             4.0503         estimate D2E/DX2                !
 ! D6    D(2,1,5,15)          -167.0365         estimate D2E/DX2                !
 ! D7    D(7,1,5,14)          -178.5522         estimate D2E/DX2                !
 ! D8    D(7,1,5,15)            10.3609         estimate D2E/DX2                !
 ! D9    D(1,2,3,4)             -4.6312         estimate D2E/DX2                !
 ! D10   D(1,2,3,9)            173.4619         estimate D2E/DX2                !
 ! D11   D(8,2,3,4)            179.2158         estimate D2E/DX2                !
 ! D12   D(8,2,3,9)             -2.6911         estimate D2E/DX2                !
 ! D13   D(2,3,4,13)           176.5076         estimate D2E/DX2                !
 ! D14   D(2,3,4,14)            -0.4392         estimate D2E/DX2                !
 ! D15   D(9,3,4,13)            -1.7219         estimate D2E/DX2                !
 ! D16   D(9,3,4,14)          -178.6687         estimate D2E/DX2                !
 ! D17   D(2,3,9,6)              3.9577         estimate D2E/DX2                !
 ! D18   D(2,3,9,11)          -174.2145         estimate D2E/DX2                !
 ! D19   D(4,3,9,6)           -177.9497         estimate D2E/DX2                !
 ! D20   D(4,3,9,11)             3.8782         estimate D2E/DX2                !
 ! D21   D(3,4,13,10)           -2.6472         estimate D2E/DX2                !
 ! D22   D(3,4,13,19)          175.0427         estimate D2E/DX2                !
 ! D23   D(14,4,13,10)         174.4491         estimate D2E/DX2                !
 ! D24   D(14,4,13,19)          -7.861          estimate D2E/DX2                !
 ! D25   D(3,4,14,5)             7.1571         estimate D2E/DX2                !
 ! D26   D(3,4,14,43)         -171.3755         estimate D2E/DX2                !
 ! D27   D(13,4,14,5)         -169.9273         estimate D2E/DX2                !
 ! D28   D(13,4,14,43)          11.5401         estimate D2E/DX2                !
 ! D29   D(1,5,14,4)            -9.0999         estimate D2E/DX2                !
 ! D30   D(1,5,14,43)          169.6541         estimate D2E/DX2                !
 ! D31   D(15,5,14,4)          162.9266         estimate D2E/DX2                !
 ! D32   D(15,5,14,43)         -18.3193         estimate D2E/DX2                !
 ! D33   D(1,5,15,17)          176.3594         estimate D2E/DX2                !
 ! D34   D(1,5,15,41)            4.3755         estimate D2E/DX2                !
 ! D35   D(14,5,15,17)           4.472          estimate D2E/DX2                !
 ! D36   D(14,5,15,41)        -167.5119         estimate D2E/DX2                !
 ! D37   D(3,9,11,10)           -1.7607         estimate D2E/DX2                !
 ! D38   D(3,9,11,12)          177.3239         estimate D2E/DX2                !
 ! D39   D(6,9,11,10)         -179.9085         estimate D2E/DX2                !
 ! D40   D(6,9,11,12)           -0.8239         estimate D2E/DX2                !
 ! D41   D(13,10,11,9)          -2.803          estimate D2E/DX2                !
 ! D42   D(13,10,11,12)        178.0952         estimate D2E/DX2                !
 ! D43   D(16,10,11,9)         175.3596         estimate D2E/DX2                !
 ! D44   D(16,10,11,12)         -3.7422         estimate D2E/DX2                !
 ! D45   D(11,10,13,4)           5.0194         estimate D2E/DX2                !
 ! D46   D(11,10,13,19)       -172.8968         estimate D2E/DX2                !
 ! D47   D(16,10,13,4)        -173.3543         estimate D2E/DX2                !
 ! D48   D(16,10,13,19)          8.7295         estimate D2E/DX2                !
 ! D49   D(11,10,16,18)       -173.4323         estimate D2E/DX2                !
 ! D50   D(11,10,16,42)          6.0969         estimate D2E/DX2                !
 ! D51   D(13,10,16,18)          4.8978         estimate D2E/DX2                !
 ! D52   D(13,10,16,42)       -175.573          estimate D2E/DX2                !
 ! D53   D(4,13,19,18)         169.5569         estimate D2E/DX2                !
 ! D54   D(4,13,19,22)         -96.0779         estimate D2E/DX2                !
 ! D55   D(4,13,19,26)         -90.2603         estimate D2E/DX2                !
 ! D56   D(4,13,19,43)           2.1285         estimate D2E/DX2                !
 ! D57   D(4,13,19,44)          58.5823         estimate D2E/DX2                !
 ! D58   D(10,13,19,18)        -12.6682         estimate D2E/DX2                !
 ! D59   D(10,13,19,22)         81.697          estimate D2E/DX2                !
 ! D60   D(10,13,19,26)         87.5146         estimate D2E/DX2                !
 ! D61   D(10,13,19,43)        179.9034         estimate D2E/DX2                !
 ! D62   D(10,13,19,44)       -123.6428         estimate D2E/DX2                !
 ! D63   D(4,14,43,17)        -162.5491         estimate D2E/DX2                !
 ! D64   D(4,14,43,19)          -8.0599         estimate D2E/DX2                !
 ! D65   D(4,14,43,20)          56.9848         estimate D2E/DX2                !
 ! D66   D(4,14,43,21)          99.8385         estimate D2E/DX2                !
 ! D67   D(4,14,43,44)         -61.0802         estimate D2E/DX2                !
 ! D68   D(5,14,43,17)          18.8488         estimate D2E/DX2                !
 ! D69   D(5,14,43,19)         173.338          estimate D2E/DX2                !
 ! D70   D(5,14,43,20)        -121.6173         estimate D2E/DX2                !
 ! D71   D(5,14,43,21)         -78.7636         estimate D2E/DX2                !
 ! D72   D(5,14,43,44)         120.3177         estimate D2E/DX2                !
 ! D73   D(5,15,17,37)        -164.8025         estimate D2E/DX2                !
 ! D74   D(5,15,17,43)          11.0328         estimate D2E/DX2                !
 ! D75   D(41,15,17,37)          7.3221         estimate D2E/DX2                !
 ! D76   D(41,15,17,43)       -176.8426         estimate D2E/DX2                !
 ! D77   D(5,15,41,34)         176.3244         estimate D2E/DX2                !
 ! D78   D(17,15,41,34)          4.0183         estimate D2E/DX2                !
 ! D79   D(10,16,18,19)        -14.7065         estimate D2E/DX2                !
 ! D80   D(10,16,18,39)        179.0346         estimate D2E/DX2                !
 ! D81   D(42,16,18,19)        165.7515         estimate D2E/DX2                !
 ! D82   D(42,16,18,39)         -0.5074         estimate D2E/DX2                !
 ! D83   D(10,16,42,31)        179.5176         estimate D2E/DX2                !
 ! D84   D(18,16,42,31)         -0.938          estimate D2E/DX2                !
 ! D85   D(15,17,37,34)        -14.4255         estimate D2E/DX2                !
 ! D86   D(15,17,37,38)        100.3094         estimate D2E/DX2                !
 ! D87   D(15,17,37,45)       -141.9752         estimate D2E/DX2                !
 ! D88   D(43,17,37,34)        172.3773         estimate D2E/DX2                !
 ! D89   D(43,17,37,38)        -72.8878         estimate D2E/DX2                !
 ! D90   D(43,17,37,45)         44.8276         estimate D2E/DX2                !
 ! D91   D(15,17,43,14)        -15.6299         estimate D2E/DX2                !
 ! D92   D(15,17,43,19)        -70.635          estimate D2E/DX2                !
 ! D93   D(15,17,43,20)         97.4331         estimate D2E/DX2                !
 ! D94   D(15,17,43,21)         98.595          estimate D2E/DX2                !
 ! D95   D(15,17,43,44)       -109.1088         estimate D2E/DX2                !
 ! D96   D(37,17,43,14)        157.4843         estimate D2E/DX2                !
 ! D97   D(37,17,43,19)        102.4793         estimate D2E/DX2                !
 ! D98   D(37,17,43,20)        -89.4527         estimate D2E/DX2                !
 ! D99   D(37,17,43,21)        -88.2907         estimate D2E/DX2                !
 ! D100  D(37,17,43,44)         64.0054         estimate D2E/DX2                !
 ! D101  D(16,18,19,13)         14.2734         estimate D2E/DX2                !
 ! D102  D(16,18,19,22)        -86.8295         estimate D2E/DX2                !
 ! D103  D(16,18,19,26)       -127.4107         estimate D2E/DX2                !
 ! D104  D(16,18,19,43)         57.7835         estimate D2E/DX2                !
 ! D105  D(16,18,19,44)        111.9044         estimate D2E/DX2                !
 ! D106  D(39,18,19,13)        173.1703         estimate D2E/DX2                !
 ! D107  D(39,18,19,22)         72.0673         estimate D2E/DX2                !
 ! D108  D(39,18,19,26)         31.4861         estimate D2E/DX2                !
 ! D109  D(39,18,19,43)       -143.3197         estimate D2E/DX2                !
 ! D110  D(39,18,19,44)        -89.1987         estimate D2E/DX2                !
 ! D111  D(16,18,39,31)          1.5995         estimate D2E/DX2                !
 ! D112  D(16,18,39,40)        118.2801         estimate D2E/DX2                !
 ! D113  D(16,18,39,58)       -123.4233         estimate D2E/DX2                !
 ! D114  D(19,18,39,31)       -157.4241         estimate D2E/DX2                !
 ! D115  D(19,18,39,40)        -40.7436         estimate D2E/DX2                !
 ! D116  D(19,18,39,58)         77.5531         estimate D2E/DX2                !
 ! D117  D(13,19,22,23)        -64.4283         estimate D2E/DX2                !
 ! D118  D(13,19,22,24)         67.4589         estimate D2E/DX2                !
 ! D119  D(18,19,22,23)         16.4583         estimate D2E/DX2                !
 ! D120  D(18,19,22,24)        148.3455         estimate D2E/DX2                !
 ! D121  D(43,19,22,23)       -152.8861         estimate D2E/DX2                !
 ! D122  D(43,19,22,24)        -20.9989         estimate D2E/DX2                !
 ! D123  D(44,19,22,23)        164.3397         estimate D2E/DX2                !
 ! D124  D(44,19,22,24)        -63.7731         estimate D2E/DX2                !
 ! D125  D(13,19,26,27)       -126.6922         estimate D2E/DX2                !
 ! D126  D(13,19,26,28)         93.1895         estimate D2E/DX2                !
 ! D127  D(18,19,26,27)        -34.9281         estimate D2E/DX2                !
 ! D128  D(18,19,26,28)       -175.0464         estimate D2E/DX2                !
 ! D129  D(43,19,26,27)        143.4304         estimate D2E/DX2                !
 ! D130  D(43,19,26,28)          3.3121         estimate D2E/DX2                !
 ! D131  D(44,19,26,27)         86.3764         estimate D2E/DX2                !
 ! D132  D(44,19,26,28)        -53.7419         estimate D2E/DX2                !
 ! D133  D(13,19,43,14)          2.268          estimate D2E/DX2                !
 ! D134  D(13,19,43,17)         56.7299         estimate D2E/DX2                !
 ! D135  D(13,19,43,20)       -115.2253         estimate D2E/DX2                !
 ! D136  D(13,19,43,21)       -112.0552         estimate D2E/DX2                !
 ! D137  D(18,19,43,14)        -40.4781         estimate D2E/DX2                !
 ! D138  D(18,19,43,17)         13.9838         estimate D2E/DX2                !
 ! D139  D(18,19,43,20)       -157.9713         estimate D2E/DX2                !
 ! D140  D(18,19,43,21)       -154.8013         estimate D2E/DX2                !
 ! D141  D(22,19,43,14)        103.9104         estimate D2E/DX2                !
 ! D142  D(22,19,43,17)        158.3723         estimate D2E/DX2                !
 ! D143  D(22,19,43,20)        -13.5829         estimate D2E/DX2                !
 ! D144  D(22,19,43,21)        -10.4128         estimate D2E/DX2                !
 ! D145  D(26,19,43,14)        144.5684         estimate D2E/DX2                !
 ! D146  D(26,19,43,17)       -160.9697         estimate D2E/DX2                !
 ! D147  D(26,19,43,20)         27.0752         estimate D2E/DX2                !
 ! D148  D(26,19,43,21)         30.2452         estimate D2E/DX2                !
 ! D149  D(24,20,21,30)       -158.1251         estimate D2E/DX2                !
 ! D150  D(24,20,21,71)         -3.3341         estimate D2E/DX2                !
 ! D151  D(28,20,21,30)         -8.5643         estimate D2E/DX2                !
 ! D152  D(28,20,21,71)        146.2268         estimate D2E/DX2                !
 ! D153  D(21,20,24,22)       -168.8994         estimate D2E/DX2                !
 ! D154  D(21,20,24,25)         73.8595         estimate D2E/DX2                !
 ! D155  D(21,20,24,86)        -45.6886         estimate D2E/DX2                !
 ! D156  D(28,20,24,22)         36.6694         estimate D2E/DX2                !
 ! D157  D(28,20,24,25)        -80.5717         estimate D2E/DX2                !
 ! D158  D(28,20,24,86)        159.8802         estimate D2E/DX2                !
 ! D159  D(43,20,24,22)        -86.4562         estimate D2E/DX2                !
 ! D160  D(43,20,24,25)        156.3027         estimate D2E/DX2                !
 ! D161  D(43,20,24,86)         36.7545         estimate D2E/DX2                !
 ! D162  D(21,20,28,26)        164.8936         estimate D2E/DX2                !
 ! D163  D(21,20,28,29)        -85.4377         estimate D2E/DX2                !
 ! D164  D(21,20,28,87)         28.4964         estimate D2E/DX2                !
 ! D165  D(24,20,28,26)        -39.7234         estimate D2E/DX2                !
 ! D166  D(24,20,28,29)         69.9453         estimate D2E/DX2                !
 ! D167  D(24,20,28,87)       -176.1205         estimate D2E/DX2                !
 ! D168  D(43,20,28,26)         84.9225         estimate D2E/DX2                !
 ! D169  D(43,20,28,29)       -165.4088         estimate D2E/DX2                !
 ! D170  D(43,20,28,87)        -51.4746         estimate D2E/DX2                !
 ! D171  D(24,20,43,14)        -19.1575         estimate D2E/DX2                !
 ! D172  D(24,20,43,17)       -120.4881         estimate D2E/DX2                !
 ! D173  D(24,20,43,19)         52.9604         estimate D2E/DX2                !
 ! D174  D(24,20,43,44)         87.8938         estimate D2E/DX2                !
 ! D175  D(28,20,43,14)       -137.3193         estimate D2E/DX2                !
 ! D176  D(28,20,43,17)        121.3502         estimate D2E/DX2                !
 ! D177  D(28,20,43,19)        -65.2013         estimate D2E/DX2                !
 ! D178  D(28,20,43,44)        -30.2679         estimate D2E/DX2                !
 ! D179  D(30,21,43,14)        152.8905         estimate D2E/DX2                !
 ! D180  D(30,21,43,17)         69.1322         estimate D2E/DX2                !
 ! D181  D(30,21,43,19)       -116.7934         estimate D2E/DX2                !
 ! D182  D(30,21,43,44)        -60.5546         estimate D2E/DX2                !
 ! D183  D(71,21,43,14)         25.2948         estimate D2E/DX2                !
 ! D184  D(71,21,43,17)        -58.4635         estimate D2E/DX2                !
 ! D185  D(71,21,43,19)        115.6109         estimate D2E/DX2                !
 ! D186  D(71,21,43,44)        171.8497         estimate D2E/DX2                !
 ! D187  D(20,21,71,72)         39.6449         estimate D2E/DX2                !
 ! D188  D(20,21,71,73)       -138.4441         estimate D2E/DX2                !
 ! D189  D(30,21,71,72)       -165.8609         estimate D2E/DX2                !
 ! D190  D(30,21,71,73)         16.0501         estimate D2E/DX2                !
 ! D191  D(43,21,71,72)        -45.2085         estimate D2E/DX2                !
 ! D192  D(43,21,71,73)        136.7025         estimate D2E/DX2                !
 ! D193  D(19,22,24,20)         56.9456         estimate D2E/DX2                !
 ! D194  D(19,22,24,25)        172.4624         estimate D2E/DX2                !
 ! D195  D(19,22,24,86)        -67.3195         estimate D2E/DX2                !
 ! D196  D(23,22,24,20)       -177.7031         estimate D2E/DX2                !
 ! D197  D(23,22,24,25)        -62.1863         estimate D2E/DX2                !
 ! D198  D(23,22,24,86)         58.0318         estimate D2E/DX2                !
 ! D199  D(26,22,24,20)        -19.6844         estimate D2E/DX2                !
 ! D200  D(26,22,24,25)         95.8325         estimate D2E/DX2                !
 ! D201  D(26,22,24,86)       -143.9495         estimate D2E/DX2                !
 ! D202  D(23,22,26,27)         -0.1613         estimate D2E/DX2                !
 ! D203  D(23,22,26,28)        151.6468         estimate D2E/DX2                !
 ! D204  D(24,22,26,27)       -157.4367         estimate D2E/DX2                !
 ! D205  D(24,22,26,28)         -5.6286         estimate D2E/DX2                !
 ! D206  D(19,26,28,20)        -42.5297         estimate D2E/DX2                !
 ! D207  D(19,26,28,29)       -149.8783         estimate D2E/DX2                !
 ! D208  D(19,26,28,87)         97.0591         estimate D2E/DX2                !
 ! D209  D(22,26,28,20)         28.0427         estimate D2E/DX2                !
 ! D210  D(22,26,28,29)        -79.306          estimate D2E/DX2                !
 ! D211  D(22,26,28,87)        167.6315         estimate D2E/DX2                !
 ! D212  D(27,26,28,20)       -179.3193         estimate D2E/DX2                !
 ! D213  D(27,26,28,29)         73.3321         estimate D2E/DX2                !
 ! D214  D(27,26,28,87)        -39.7305         estimate D2E/DX2                !
 ! D215  D(20,28,87,88)        -79.6825         estimate D2E/DX2                !
 ! D216  D(20,28,87,89)        104.4983         estimate D2E/DX2                !
 ! D217  D(26,28,87,88)        151.2146         estimate D2E/DX2                !
 ! D218  D(26,28,87,89)        -24.6045         estimate D2E/DX2                !
 ! D219  D(29,28,87,88)         35.348          estimate D2E/DX2                !
 ! D220  D(29,28,87,89)       -140.4711         estimate D2E/DX2                !
 ! D221  D(32,31,39,18)        115.5873         estimate D2E/DX2                !
 ! D222  D(32,31,39,40)          0.08           estimate D2E/DX2                !
 ! D223  D(32,31,39,58)       -120.9335         estimate D2E/DX2                !
 ! D224  D(33,31,39,18)       -119.4851         estimate D2E/DX2                !
 ! D225  D(33,31,39,40)        125.0076         estimate D2E/DX2                !
 ! D226  D(33,31,39,58)          3.9941         estimate D2E/DX2                !
 ! D227  D(42,31,39,18)         -2.0816         estimate D2E/DX2                !
 ! D228  D(42,31,39,40)       -117.5888         estimate D2E/DX2                !
 ! D229  D(42,31,39,58)        121.3977         estimate D2E/DX2                !
 ! D230  D(32,31,42,16)       -119.4004         estimate D2E/DX2                !
 ! D231  D(33,31,42,16)        123.4054         estimate D2E/DX2                !
 ! D232  D(39,31,42,16)          1.8448         estimate D2E/DX2                !
 ! D233  D(35,34,37,17)        134.0098         estimate D2E/DX2                !
 ! D234  D(35,34,37,38)         21.7354         estimate D2E/DX2                !
 ! D235  D(35,34,37,45)        -97.6973         estimate D2E/DX2                !
 ! D236  D(36,34,37,17)       -100.5493         estimate D2E/DX2                !
 ! D237  D(36,34,37,38)        147.1763         estimate D2E/DX2                !
 ! D238  D(36,34,37,45)         27.7436         estimate D2E/DX2                !
 ! D239  D(41,34,37,17)         16.47           estimate D2E/DX2                !
 ! D240  D(41,34,37,38)        -95.8044         estimate D2E/DX2                !
 ! D241  D(41,34,37,45)        144.7629         estimate D2E/DX2                !
 ! D242  D(35,34,41,15)       -134.4783         estimate D2E/DX2                !
 ! D243  D(36,34,41,15)        107.6801         estimate D2E/DX2                !
 ! D244  D(37,34,41,15)        -12.8386         estimate D2E/DX2                !
 ! D245  D(17,37,45,46)         62.1791         estimate D2E/DX2                !
 ! D246  D(17,37,45,50)       -177.0432         estimate D2E/DX2                !
 ! D247  D(17,37,45,54)        -59.0776         estimate D2E/DX2                !
 ! D248  D(34,37,45,46)        -58.7609         estimate D2E/DX2                !
 ! D249  D(34,37,45,50)         62.0168         estimate D2E/DX2                !
 ! D250  D(34,37,45,54)        179.9824         estimate D2E/DX2                !
 ! D251  D(38,37,45,46)        179.9396         estimate D2E/DX2                !
 ! D252  D(38,37,45,50)        -59.2828         estimate D2E/DX2                !
 ! D253  D(38,37,45,54)         58.6828         estimate D2E/DX2                !
 ! D254  D(18,39,58,59)         54.6188         estimate D2E/DX2                !
 ! D255  D(18,39,58,63)        -65.4328         estimate D2E/DX2                !
 ! D256  D(18,39,58,67)        175.8984         estimate D2E/DX2                !
 ! D257  D(31,39,58,59)        -63.5379         estimate D2E/DX2                !
 ! D258  D(31,39,58,63)        176.4106         estimate D2E/DX2                !
 ! D259  D(31,39,58,67)         57.7417         estimate D2E/DX2                !
 ! D260  D(40,39,58,59)        173.7701         estimate D2E/DX2                !
 ! D261  D(40,39,58,63)         53.7185         estimate D2E/DX2                !
 ! D262  D(40,39,58,67)        -64.9504         estimate D2E/DX2                !
 ! D263  D(37,45,46,47)        -55.2933         estimate D2E/DX2                !
 ! D264  D(37,45,46,48)         65.4252         estimate D2E/DX2                !
 ! D265  D(37,45,46,49)       -175.2087         estimate D2E/DX2                !
 ! D266  D(50,45,46,47)       -174.9762         estimate D2E/DX2                !
 ! D267  D(50,45,46,48)        -54.2577         estimate D2E/DX2                !
 ! D268  D(50,45,46,49)         65.1084         estimate D2E/DX2                !
 ! D269  D(54,45,46,47)         65.2015         estimate D2E/DX2                !
 ! D270  D(54,45,46,48)       -174.08           estimate D2E/DX2                !
 ! D271  D(54,45,46,49)        -54.7139         estimate D2E/DX2                !
 ! D272  D(37,45,50,51)         57.2714         estimate D2E/DX2                !
 ! D273  D(37,45,50,52)        176.6633         estimate D2E/DX2                !
 ! D274  D(37,45,50,53)        -63.9745         estimate D2E/DX2                !
 ! D275  D(46,45,50,51)        179.2885         estimate D2E/DX2                !
 ! D276  D(46,45,50,52)        -61.3196         estimate D2E/DX2                !
 ! D277  D(46,45,50,53)         58.0426         estimate D2E/DX2                !
 ! D278  D(54,45,50,51)        -60.3846         estimate D2E/DX2                !
 ! D279  D(54,45,50,52)         59.0073         estimate D2E/DX2                !
 ! D280  D(54,45,50,53)        178.3695         estimate D2E/DX2                !
 ! D281  D(37,45,54,55)         62.6453         estimate D2E/DX2                !
 ! D282  D(37,45,54,56)       -177.4201         estimate D2E/DX2                !
 ! D283  D(37,45,54,57)        -57.524          estimate D2E/DX2                !
 ! D284  D(46,45,54,55)        -59.7965         estimate D2E/DX2                !
 ! D285  D(46,45,54,56)         60.1381         estimate D2E/DX2                !
 ! D286  D(46,45,54,57)       -179.9658         estimate D2E/DX2                !
 ! D287  D(50,45,54,55)        179.9113         estimate D2E/DX2                !
 ! D288  D(50,45,54,56)        -60.1541         estimate D2E/DX2                !
 ! D289  D(50,45,54,57)         59.742          estimate D2E/DX2                !
 ! D290  D(39,58,59,60)        -60.5034         estimate D2E/DX2                !
 ! D291  D(39,58,59,61)         60.413          estimate D2E/DX2                !
 ! D292  D(39,58,59,62)        179.9271         estimate D2E/DX2                !
 ! D293  D(63,58,59,60)         59.111          estimate D2E/DX2                !
 ! D294  D(63,58,59,61)       -179.9726         estimate D2E/DX2                !
 ! D295  D(63,58,59,62)        -60.4585         estimate D2E/DX2                !
 ! D296  D(67,58,59,60)        179.2729         estimate D2E/DX2                !
 ! D297  D(67,58,59,61)        -59.8107         estimate D2E/DX2                !
 ! D298  D(67,58,59,62)         59.7034         estimate D2E/DX2                !
 ! D299  D(39,58,63,64)        -58.5467         estimate D2E/DX2                !
 ! D300  D(39,58,63,65)         62.1434         estimate D2E/DX2                !
 ! D301  D(39,58,63,66)       -177.7931         estimate D2E/DX2                !
 ! D302  D(59,58,63,64)       -179.2039         estimate D2E/DX2                !
 ! D303  D(59,58,63,65)        -58.5137         estimate D2E/DX2                !
 ! D304  D(59,58,63,66)         61.5498         estimate D2E/DX2                !
 ! D305  D(67,58,63,64)         59.8347         estimate D2E/DX2                !
 ! D306  D(67,58,63,65)       -179.4751         estimate D2E/DX2                !
 ! D307  D(67,58,63,66)        -59.4116         estimate D2E/DX2                !
 ! D308  D(39,58,67,68)         57.888          estimate D2E/DX2                !
 ! D309  D(39,58,67,69)        177.1988         estimate D2E/DX2                !
 ! D310  D(39,58,67,70)        -63.3835         estimate D2E/DX2                !
 ! D311  D(59,58,67,68)        179.1465         estimate D2E/DX2                !
 ! D312  D(59,58,67,69)        -61.5427         estimate D2E/DX2                !
 ! D313  D(59,58,67,70)         57.8751         estimate D2E/DX2                !
 ! D314  D(63,58,67,68)        -60.5121         estimate D2E/DX2                !
 ! D315  D(63,58,67,69)         58.7987         estimate D2E/DX2                !
 ! D316  D(63,58,67,70)        178.2164         estimate D2E/DX2                !
 ! D317  D(21,71,72,74)       -177.3362         estimate D2E/DX2                !
 ! D318  D(21,71,72,75)          3.7273         estimate D2E/DX2                !
 ! D319  D(73,71,72,74)          0.7805         estimate D2E/DX2                !
 ! D320  D(73,71,72,75)       -178.1559         estimate D2E/DX2                !
 ! D321  D(21,71,73,76)        177.4742         estimate D2E/DX2                !
 ! D322  D(21,71,73,77)         -1.2125         estimate D2E/DX2                !
 ! D323  D(72,71,73,76)         -0.7855         estimate D2E/DX2                !
 ! D324  D(72,71,73,77)       -179.4722         estimate D2E/DX2                !
 ! D325  D(71,72,74,78)         -0.3067         estimate D2E/DX2                !
 ! D326  D(71,72,74,79)       -179.7548         estimate D2E/DX2                !
 ! D327  D(75,72,74,78)        178.6437         estimate D2E/DX2                !
 ! D328  D(75,72,74,79)         -0.8044         estimate D2E/DX2                !
 ! D329  D(71,73,76,78)          0.3147         estimate D2E/DX2                !
 ! D330  D(71,73,76,80)       -179.4256         estimate D2E/DX2                !
 ! D331  D(77,73,76,78)        179.0062         estimate D2E/DX2                !
 ! D332  D(77,73,76,80)         -0.7341         estimate D2E/DX2                !
 ! D333  D(72,74,78,76)         -0.2017         estimate D2E/DX2                !
 ! D334  D(72,74,78,85)        179.9872         estimate D2E/DX2                !
 ! D335  D(79,74,78,76)        179.2352         estimate D2E/DX2                !
 ! D336  D(79,74,78,85)         -0.576          estimate D2E/DX2                !
 ! D337  D(73,76,78,74)          0.197          estimate D2E/DX2                !
 ! D338  D(73,76,78,85)       -179.9761         estimate D2E/DX2                !
 ! D339  D(80,76,78,74)        179.9436         estimate D2E/DX2                !
 ! D340  D(80,76,78,85)         -0.2295         estimate D2E/DX2                !
 ! D341  D(74,78,85,81)         -0.35           estimate D2E/DX2                !
 ! D342  D(76,78,85,81)        179.8347         estimate D2E/DX2                !
 ! D343  D(82,81,85,78)        -60.8149         estimate D2E/DX2                !
 ! D344  D(83,81,85,78)         61.469          estimate D2E/DX2                !
 ! D345  D(84,81,85,78)       -179.6773         estimate D2E/DX2                !
 ! D346  D(28,87,88,90)       -176.6731         estimate D2E/DX2                !
 ! D347  D(28,87,88,91)          1.6458         estimate D2E/DX2                !
 ! D348  D(89,87,88,90)         -0.6577         estimate D2E/DX2                !
 ! D349  D(89,87,88,91)        177.6613         estimate D2E/DX2                !
 ! D350  D(28,87,89,92)        176.0514         estimate D2E/DX2                !
 ! D351  D(28,87,89,93)         -4.9166         estimate D2E/DX2                !
 ! D352  D(88,87,89,92)          0.194          estimate D2E/DX2                !
 ! D353  D(88,87,89,93)        179.226          estimate D2E/DX2                !
 ! D354  D(87,88,90,94)          0.6866         estimate D2E/DX2                !
 ! D355  D(87,88,90,95)        179.6996         estimate D2E/DX2                !
 ! D356  D(91,88,90,94)       -177.6303         estimate D2E/DX2                !
 ! D357  D(91,88,90,95)          1.3828         estimate D2E/DX2                !
 ! D358  D(87,89,92,94)          0.24           estimate D2E/DX2                !
 ! D359  D(87,89,92,96)       -179.735          estimate D2E/DX2                !
 ! D360  D(93,89,92,94)       -178.7788         estimate D2E/DX2                !
 ! D361  D(93,89,92,96)          1.2463         estimate D2E/DX2                !
 ! D362  D(88,90,94,92)         -0.2371         estimate D2E/DX2                !
 ! D363  D(88,90,94,97)        179.3201         estimate D2E/DX2                !
 ! D364  D(95,90,94,92)       -179.2466         estimate D2E/DX2                !
 ! D365  D(95,90,94,97)          0.3106         estimate D2E/DX2                !
 ! D366  D(89,92,94,90)         -0.22           estimate D2E/DX2                !
 ! D367  D(89,92,94,97)       -179.7769         estimate D2E/DX2                !
 ! D368  D(96,92,94,90)        179.7549         estimate D2E/DX2                !
 ! D369  D(96,92,94,97)          0.198          estimate D2E/DX2                !
 --------------------------------------------------------------------------------
 Trust Radius=3.00D-01 FncErr=5.00D-06 GrdErr=5.00D-06 EigMax=2.50D+02 EigMin=1.00D-04
 Number of steps in this run=    500 maximum allowed number of steps=    582.
 GradGradGradGradGradGradGradGradGradGradGradGradGradGradGradGradGradGrad

 Stoichiometry    C41H46ClN4Ni2O3(4)
 Framework group  C1[X(C41H46ClN4Ni2O3)]
 Deg. of freedom   285
 Full point group                 C1      NOp   1
 Largest Abelian subgroup         C1      NOp   1
 Largest concise Abelian subgroup C1      NOp   1
                         Standard orientation:                         
 ---------------------------------------------------------------------
 Center     Atomic      Atomic             Coordinates (Angstroms)
 Number     Number       Type             X           Y           Z
 ---------------------------------------------------------------------
      1          6           0       -1.948436   -3.205389    2.112919
      2          6           0       -0.989166   -4.186583    1.857298
      3          6           0        0.259205   -3.814639    1.273201
      4          6           0        0.430196   -2.430224    0.876121
      5          6           0       -1.684954   -1.871871    1.728299
      6          1           0        1.253349   -5.761464    1.347740
      7          1           0       -2.882135   -3.440303    2.643855
      8          1           0       -1.157145   -5.232184    2.158169
      9          6           0        1.362666   -4.697224    1.087915
     10          6           0        2.672921   -2.826739    0.297967
     11          6           0        2.579738   -4.198996    0.616555
     12          1           0        3.461569   -4.845809    0.504380
     13          7           0        1.608919   -1.976988    0.378096
     14          7           0       -0.559079   -1.509046    1.040090
     15          6           0       -2.463608   -0.723480    2.169529
     16          6           0        3.895249   -2.144153   -0.111016
     17          7           0       -2.138304    0.500163    1.841822
     18          7           0        3.927980   -0.847345   -0.266767
     19         28           0        1.935172   -0.118154   -0.340635
     20          6           0       -0.428168    0.544997   -1.765938
     21          6           0       -1.779201    0.718082   -1.395708
     22          6           0        1.677997   -0.380572   -2.300669
     23          1           0        2.444476   -1.057357   -2.713341
     24          6           0        0.194955   -0.690163   -2.420940
     25          1           0       -0.124712   -0.729007   -3.496875
     26          6           0        1.865984    1.011133   -2.092743
     27          1           0        2.802140    1.544842   -2.324011
     28          6           0        0.507799    1.701955   -2.207974
     29          1           0        0.296261    1.802416   -3.309185
     30          1           0       -2.098601    1.773298   -1.297912
     31          6           0        6.034898   -1.854322   -0.729965
     32          1           0        6.382155   -2.113199   -1.749905
     33          1           0        6.889591   -1.943753   -0.029545
     34          6           0       -3.964369    0.442379    3.356503
     35          1           0       -4.078072    0.536509    4.452614
     36          1           0       -4.961614    0.539896    2.876613
     37          6           0       -2.900192    1.397099    2.747221
     38          1           0       -2.184128    1.710884    3.544521
     39          6           0        5.300704   -0.475786   -0.656671
     40          1           0        5.265085   -0.007632   -1.666829
     41          8           0       -3.459106   -0.894063    3.071365
     42          8           0        5.033915   -2.838026   -0.331463
     43         28           0       -0.637164    0.427671    0.342119
     44         17           0        1.381366    1.209970    1.576531
     45          6           0       -3.453735    2.713338    2.127482
     46          6           0       -4.464794    2.432550    0.999108
     47          1           0       -4.023251    1.780898    0.220507
     48          1           0       -5.386574    1.936537    1.369095
     49          1           0       -4.777452    3.382958    0.518402
     50          6           0       -4.139570    3.518560    3.256115
     51          1           0       -3.437313    3.725748    4.091596
     52          1           0       -4.496772    4.495162    2.867885
     53          1           0       -5.022146    2.988337    3.673064
     54          6           0       -2.268750    3.531169    1.576268
     55          1           0       -1.742798    2.991959    0.762697
     56          1           0       -2.621637    4.500364    1.166881
     57          1           0       -1.523631    3.747217    2.370109
     58          6           0        5.945583    0.573702    0.310324
     59          6           0        5.892601    0.067487    1.766004
     60          1           0        4.841800   -0.092996    2.084178
     61          1           0        6.444836   -0.886776    1.902766
     62          1           0        6.350791    0.810606    2.451306
     63          6           0        5.160727    1.897785    0.198289
     64          1           0        5.168102    2.282012   -0.844291
     65          1           0        4.105067    1.767485    0.511987
     66          1           0        5.621364    2.673926    0.845123
     67          6           0        7.408318    0.813791   -0.124591
     68          1           0        7.465403    1.164719   -1.177385
     69          1           0        7.875236    1.592365    0.513996
     70          1           0        8.033016   -0.100123   -0.034835
     71          6           0       -2.861710   -0.267495   -1.648742
     72          6           0       -2.736183   -1.672368   -1.527927
     73          6           0       -4.124489    0.221389   -2.086216
     74          6           0       -3.791710   -2.547436   -1.837475
     75          1           0       -1.793405   -2.103449   -1.165189
     76          6           0       -5.185451   -0.633383   -2.398702
     77          1           0       -4.267285    1.307880   -2.203819
     78          6           0       -5.031205   -2.034200   -2.279834
     79          1           0       -3.637362   -3.629401   -1.720501
     80          1           0       -6.152372   -0.236600   -2.744616
     81          6           0       -6.011357   -4.208488   -2.506209
     82          1           0       -5.219826   -4.612852   -3.176469
     83          1           0       -5.799375   -4.535777   -1.463482
     84          1           0       -6.990342   -4.617647   -2.818896
     85          8           0       -6.116894   -2.793694   -2.605688
     86          1           0       -0.094044   -1.658308   -1.970547
     87          6           0        0.374374    3.143699   -1.752045
     88          6           0       -0.594464    3.972622   -2.368100
     89          6           0        1.233930    3.724662   -0.795675
     90          6           0       -0.711666    5.331942   -2.031616
     91          1           0       -1.251014    3.548586   -3.146738
     92          6           0        1.125652    5.087304   -0.463508
     93          1           0        1.982455    3.091079   -0.299616
     94          6           0        0.152965    5.896429   -1.076415
     95          1           0       -1.470934    5.956477   -2.529590
     96          1           0        1.811145    5.519581    0.283278
     97          1           0        0.073003    6.964311   -0.816834
 ---------------------------------------------------------------------
 Rotational constants (GHZ):           0.0726949           0.0467272           0.0379698
 General basis read from cards:  (5D, 7F)
 ======================================================================================================
                                       Pseudopotential Parameters
 ======================================================================================================
  Center     Atomic      Valence      Angular      Power
  Number     Number     Electrons     Momentum     of R      Exponent        Coefficient   SO-Coeffient
 ======================================================================================================
    1          6
                                   No pseudopotential on this center.
    2          6
                                   No pseudopotential on this center.
    3          6
                                   No pseudopotential on this center.
    4          6
                                   No pseudopotential on this center.
    5          6
                                   No pseudopotential on this center.
    6          1
                                   No pseudopotential on this center.
    7          1
                                   No pseudopotential on this center.
    8          1
                                   No pseudopotential on this center.
    9          6
                                   No pseudopotential on this center.
   10          6
                                   No pseudopotential on this center.
   11          6
                                   No pseudopotential on this center.
   12          1
                                   No pseudopotential on this center.
   13          7
                                   No pseudopotential on this center.
   14          7
                                   No pseudopotential on this center.
   15          6
                                   No pseudopotential on this center.
   16          6
                                   No pseudopotential on this center.
   17          7
                                   No pseudopotential on this center.
   18          7
                                   No pseudopotential on this center.
   19         28           18
                                      D and up 
                                                     1      469.9324331      -10.00000000    0.00000000
                                                     2       85.4236411      -69.40848050    0.00000000
                                                     2       21.2674984      -12.09510200    0.00000000
                                      S - D
                                                     0      162.1686097        3.00000000    0.00000000
                                                     1      176.5333232       22.02536180    0.00000000
                                                     2       68.9562010      443.01810880    0.00000000
                                                     2       13.5792838      145.56964110    0.00000000
                                      P - D
                                                     0       69.0181506        5.00000000    0.00000000
                                                     1      275.5955596        4.98828240    0.00000000
                                                     2       47.1315453      256.69458530    0.00000000
                                                     2       12.9874075       78.47544500    0.00000000
   20          6
                                   No pseudopotential on this center.
   21          6
                                   No pseudopotential on this center.
   22          6
                                   No pseudopotential on this center.
   23          1
                                   No pseudopotential on this center.
   24          6
                                   No pseudopotential on this center.
   25          1
                                   No pseudopotential on this center.
   26          6
                                   No pseudopotential on this center.
   27          1
                                   No pseudopotential on this center.
   28          6
                                   No pseudopotential on this center.
   29          1
                                   No pseudopotential on this center.
   30          1
                                   No pseudopotential on this center.
   31          6
                                   No pseudopotential on this center.
   32          1
                                   No pseudopotential on this center.
   33          1
[...]
 ,0.00003005,-0.00000650,0.00001792,-0.00088454,0.00010819,-0.00066150,
 0.00001053,-0.00037998,-0.00018943,0.00002035,-0.00000195,-0.00000978,
 -0.00000275,-0.00000755,0.00000388,0.00000020,0.00000311,0.00000032,0.
 00000378,-0.00000246,-0.00000068,-0.00000089,-0.00000866,0.00000223,-0
 .00000312,-0.00000050,0.00000159,0.00000148,0.00000258,0.00000078,-0.0
 0000582,-0.00002966,-0.00001986,-0.00000031,0.00000301,0.00001512,-0.0
 0002690,-0.00001262,-0.00000774,0.00000167,-0.00000057,-0.00000056,-0.
 00002264,0.00000968,0.00001883,0.00003201,-0.00000032,-0.00000879,-0.0
 0000212,0.00000756,-0.00006275,0.00006292,0.00005226,0.00015368,-0.000
 00292,-0.00000486,0.00003229,0.00000949,0.00000379,-0.00001153,0.00000
 111,0.00000130,0.00000043,0.00000495,0.00000318,0.00000440,-0.00000012
 ,-0.00000035,0.00000018,-0.00000413,0.00000283,-0.00000355,0.00000007,
 0.00000024,0.00000488,-0.00000017,-0.00000020,0.00000138,0.00000280,0.
 00000069,-0.00000046,-0.00000262,0.00000318,-0.00006291,0.00000587,0.0
 0000775,-0.00002493,0.00000784,0.00000441,0.00000568,-0.00000455,0.000
 00626,0.00005286,0.00001017,-0.00002203,0.00000567,-0.00000188,0.00000
 747,0.00000277,-0.00000324,-0.00001050,-0.00000265,-0.00000529,0.00000
 654,-0.00000044,0.00001012,0.00000133,0.00000462,-0.00001393,0.0000172
 4,-0.00000601,-0.00000362,-0.00000122,0.00000290,-0.00002893,-0.000024
 66,-0.00002297,0.00003824,0.00001116,0.00001053,-0.00000018,0.00001258
 ,0.00000022,-0.00000044,-0.00000209,0.00000201,0.00000522,0.00000081,0
 .00000089,-0.00000714,0.00000326,0.00000012,0.00000876,0.00000820,0.00
 000763,-0.00000587,0.00000002,0.00000154,0.00000354,-0.00000946,0.0000
 0073,-0.00001063,0.00000027,-0.00000191,0.00000316,0.00000363,-0.00000
 335,-0.00000531,-0.00000923,0.00000046,0.00000353,0.00000136,-0.000001
 21,0.00002170,0.00001269,0.00000426,-0.00000087,-0.00000265,-0.0000005
 5,-0.00000275,-0.00000083,-0.00000091,-0.00000042,0.00001552,-0.000001
 71,0.00000159,-0.00000198,0.00000013,0.00000161,-0.00000213,0.00000142
 ,-0.00000120,-0.00000139,-0.00000034,-0.00002727,-0.00002508,-0.000005
 47,0.00001624,-0.00003271,-0.00000777,0.00297426,-0.00370104,-0.002166
 03,0.00049402,-0.00073019,0.00051642,-0.01685623,-0.00691958,-0.019875
 92,0.00363091,-0.00041110,-0.00009021,-0.00031493,-0.00004373,0.000174
 45,-0.05842208,-0.09316007,-0.07920592,-0.00104826,0.00079544,0.001203
 38,0.01044889,0.00908044,0.01192521,0.00056779,0.00032286,0.00055835,0
 .06058310,0.09475032,-0.00000657,0.00001145,0.00000120,0.00000968,-0.0
 0000410,-0.00000332,-0.00001048,0.00000158,0.00000346,-0.00000820,-0.0
 0000913,0.00000153,0.00000576,-0.00000860,0.00000145,-0.00000017,-0.00
 000176,0.00000072,-0.00000102,0.00000004,0.00000024,-0.00000030,-0.000
 00217,0.00000006,0.00000886,-0.00000703,-0.00000129,0.00002256,0.00000
 207,-0.00000735,-0.00000219,-0.00000443,-0.00000080,0.00000126,-0.0000
 0235,-0.00000005,0.00000021,0.00001692,0.00000754,-0.00000318,0.000002
 57,0.00000681,0.00001163,0.00002155,-0.00001630,-0.00004554,-0.0000088
 0,0.00001543,-0.00000591,-0.00001112,0.00001818,0.00002365,0.00002399,
 0.00000602,-0.00003604,0.00001360,-0.00000562,0.00002731,-0.00001099,-
 0.00013008,0.00004239,-0.00002754,-0.00001351,0.00003244,0.00002733,-0
 .00003177,0.00000468,-0.00001979,0.00000333,-0.00000859,-0.00004750,0.
 00004312,-0.00000444,0.00000664,-0.00000029,-0.00003957,-0.00009323,-0
 .00005162,0.00001566,-0.00001694,0.00002733,-0.00040784,0.00029192,0.0
 0001894,-0.00001340,-0.00004956,-0.00010552,0.00003107,0.00003219,0.00
 000186,-0.00000751,-0.00000987,0.00000577,0.00000152,0.00000145,-0.000
 00148,0.00000332,-0.00000092,0.00000021,0.00000523,-0.00000272,-0.0000
 0133,-0.00000123,-0.00000029,0.00000249,-0.00000141,0.00000164,-0.0000
 0146,-0.00001051,-0.00000370,-0.00000577,0.00000162,0.00000204,-0.0000
 0095,-0.00002442,-0.00001413,0.00000209,0.00000192,0.00000024,-0.00000
 347,-0.00001815,-0.00000823,0.00001907,0.00004471,-0.00000498,-0.00001
 062,0.00003112,0.00005809,-0.00002054,0.00001860,-0.00000114,0.0000033
 8,0.00001027,0.00001359,0.00000268,-0.00000066,-0.00000223,0.00000230,
 0.00000265,0.00000472,0.00000017,-0.00000482,-0.00000260,0.00000296,0.
 00000422,-0.00000120,-0.00000171,-0.00000486,-0.00000836,-0.00000108,0
 .00000187,0.00000079,0.00000076,0.00000154,0.00000058,-0.00000160,-0.0
 0000509,-0.00000061,0.00000426,-0.00001377,-0.00002797,-0.00000101,0.0
 0000318,0.00002070,0.00000041,0.00001425,-0.00000521,-0.00000823,0.000
 00769,0.00000735,0.00000495,0.00001394,-0.00000836,-0.00000187,-0.0000
 0429,0.00000672,0.00000245,0.00000108,-0.00000198,-0.00000290,-0.00000
 161,0.00000292,-0.00000331,0.00000229,0.00000037,0.00000301,-0.0000231
 2,0.00000522,0.00000985,0.00000070,-0.00000798,-0.00001295,-0.00001114
 ,-0.00000582,-0.00001644,0.00001863,0.00000476,0.00001567,-0.00000052,
 0.00000372,0.00000334,0.00000068,-0.00000255,-0.00000326,0.00000426,0.
 00000082,0.00000327,-0.00000197,0.00000273,-0.00000101,0.00001296,0.00
 000337,0.00000085,-0.00000432,0.00000257,0.00000067,0.00000171,-0.0000
 0213,-0.00000236,-0.00001255,-0.00000106,-0.00000283,0.00000202,0.0000
 0320,-0.00000097,-0.00000169,-0.00001094,0.00000144,0.00000398,0.00000
 041,0.00000031,0.00002699,0.00001554,0.00000589,-0.00000100,-0.0000021
 3,0.00000009,-0.00000237,0.00000018,-0.00000062,-0.00000097,0.00001910
 ,-0.00000124,0.00000225,-0.00000254,-0.00000026,0.00000189,-0.00000242
 ,0.00000152,-0.00000157,-0.00000163,-0.00000032,-0.00003082,-0.0000304
 5,-0.00000665,0.00000775,-0.00001819,-0.00000522,-0.00190686,-0.002901
 21,0.00398621,0.00069895,0.00033951,-0.00012620,-0.00585246,-0.0015221
 7,-0.00245564,-0.00406149,0.00061950,0.00343267,0.00045398,0.00019276,
 -0.00057610,-0.11894717,-0.07916563,-0.17813202,0.00210504,0.00113734,
 -0.00156355,-0.00516883,-0.00663874,-0.00434281,-0.00033914,-0.0003545
 5,-0.00022724,0.13121393,0.08715455,0.18173665,0.00000414,-0.00000753,
 0.00000013,-0.00000694,0.00000204,0.00000282,0.00000664,-0.00000061,-0
 .00000336,0.00000391,-0.00000148,-0.00000143,-0.00000166,0.00000826,0.
 00000099,0.00000028,0.00000093,-0.00000006,0.00000036,-0.00000040,-0.0
 0000038,-0.00000015,0.00000105,-0.00000022,-0.00000588,0.00000442,0.00
 000139,-0.00001580,-0.00000048,0.00000429,0.00000212,0.00000185,-0.000
 00076,-0.00000069,0.00000084,-0.00000008,0.00000223,-0.00000926,0.0000
 0373,0.00000269,0.00000214,-0.00000200,-0.00000199,-0.00001825,0.00000
 560,0.00002330,0.00000420,-0.00000658,0.,0.00001903,-0.00000540,-0.000
 00635,-0.00000632,0.00000184,0.00000478,-0.00000386,-0.00001348,0.0000
 1630,-0.00005868,-0.00003659,0.00000458,0.00000493,-0.00000599,-0.0000
 1067,-0.00001721,0.00000185,0.00000023,0.00000541,0.00000003,-0.000005
 16,-0.00001542,0.00000100,0.00000079,0.00000135,0.00000146,0.00002018,
 0.00000993,0.00004814,0.00000662,0.00000406,-0.00002185,-0.00029743,-0
 .00040360,0.00035891,0.00005689,0.00005048,0.00014467,0.00000915,0.000
 01056,0.00000280,0.00000522,0.00000421,-0.00000200,-0.00000118,-0.0000
 0001,0.00000110,-0.00000144,-0.00000015,-0.00000031,-0.00000549,-0.000
 00165,0.00000058,0.00000087,0.00000028,-0.00000126,0.00000032,-0.00000
 111,0.00000098,0.00002063,-0.00000378,0.00000068,-0.00000231,-0.000000
 27,0.00000148,0.00000699,0.00000401,-0.00000378,-0.00000094,-0.0000009
 9,0.00000148,0.00000363,0.00001243,-0.00000607,-0.00002121,0.00000484,
 0.00000385,-0.00003386,-0.00003058,-0.00000156,0.00002406,0.00007263,-
 0.00005893,-0.00002764,0.00000847,-0.00000289,0.00000379,-0.00000595,-
 0.00000229,-0.00000135,0.00000007,-0.00000024,0.00000392,0.00000441,-0
 .00000098,-0.00000631,0.00000076,-0.00000223,0.00000575,-0.00000129,0.
 00000614,-0.00000207,-0.00000018,-0.00000111,-0.00000592,0.00000239,0.
 00000159,0.00000340,0.00000334,-0.00000369,0.00006625,-0.00001880,0.00
 000572,-0.00000336,0.00000303,-0.00001016,-0.00004062,0.00000010,-0.00
 000114,-0.00000256,0.00000492,0.00000134,-0.00000548,-0.00000626,0.000
 00415,0.00000069,0.00000058,0.00000102,-0.00000018,-0.00000070,0.00000
 150,-0.00000036,0.00000034,-0.00000023,-0.00000067,-0.00000081,-0.0000
 0092,0.00001110,0.00001351,-0.00000853,0.00000145,0.00000182,0.0000018
 8,0.00000245,-0.00001199,0.00000846,-0.00000434,-0.00000100,-0.0000031
 1,-0.00000031,0.00000452,-0.00000278,0.00000007,0.00000048,0.00000158,
 -0.00000108,-0.00000091,-0.00000130,-0.00000219,-0.00000016,0.00000074
 ,0.00000198,-0.00000212,0.00000292,-0.00000069,-0.00000170,-0.00000036
 ,-0.00000060,0.00000178,0.00000222,0.00000385,0.00000026,0.00000194,-0
 .00000036,-0.00000061,-0.00000100,0.00000064,0.00000181,0.00000079,0.0
 0000167,-0.00000090,-0.00000185,-0.00000676,-0.00000348,-0.00000247,0.
 00000009,0.00000053,-0.00000039,0.00000038,-0.00000050,-0.00000079,0.0
 0000048,-0.00000531,-0.00000042,-0.00000085,0.00000079,0.00000030,-0.0
 0000038,0.00000050,-0.00000018,0.00000042,0.00000033,0.,0.00000693,0.0
 0000775,0.00000223,0.00000320,-0.00000680,-0.00000660,-0.00102018,-0.0
 0007460,-0.00014432,0.00092497,0.00032521,-0.00510530,-0.00026751,0.00
 294829,-0.00496025,0.00581535,-0.01668800,-0.00509189,0.00028059,-0.00
 077088,-0.00039023,0.00064645,0.02047790,0.00726347,-0.00000033,0.0009
 1940,0.00039433,-0.05232607,0.04282432,0.00386301,-0.00095580,-0.00061
 108,0.00229584,-0.00080620,-0.00132699,0.00209582,0.04789653,0.0000003
 6,-0.00000546,0.00000237,-0.00001297,-0.00000210,0.00000552,0.00001223
 ,-0.00000210,-0.00000470,-0.00001014,-0.00000932,0.00000263,-0.0000176
 0,0.00001555,0.00000961,-0.00000058,-0.00000265,0.00000093,-0.00000199
 ,-0.00000232,0.00000056,-0.00000081,-0.00000267,0.00000027,-0.00000947
 ,-0.00000214,0.00000401,0.00000583,-0.00000732,-0.00000163,0.00000823,
 0.00000464,-0.00000690,0.00000155,-0.00000212,-0.00000031,0.00001059,0
 .00001087,0.00000996,0.00000586,0.00000606,-0.00000128,0.00004629,-0.0
 0002907,-0.00003106,-0.00003278,0.00001837,0.00000642,-0.00002190,0.00
 004301,0.00001402,0.00001127,-0.00000162,0.00000885,-0.00000660,0.0000
 1493,0.00001261,0.00003296,-0.00001804,-0.00012584,0.00000098,0.000001
 42,0.00001950,0.00001421,0.00005067,-0.00004153,0.00000576,-0.00001735
 ,0.00000319,-0.00001667,-0.00004539,0.00002978,-0.00000483,0.00000486,
 -0.00000419,-0.00006147,-0.00011907,-0.00007349,-0.00000452,0.00000673
 ,0.00004046,-0.00019695,-0.00014628,0.00025998,0.00002410,-0.00002655,
 0.00003485,0.00003711,0.00001696,-0.00001591,-0.00000867,-0.00000585,0
 .00000147,0.00000191,0.00000001,-0.00000212,0.00000338,0.00000021,0.00
 000117,-0.00000022,-0.00001716,-0.00000304,-0.00000187,0.00000008,0.00
 000312,-0.00000229,0.00000264,0.00000021,0.00003408,-0.00002678,-0.000
 01692,-0.00000029,0.00000190,0.00000738,-0.00000779,-0.00000957,0.0000
 0501,-0.00000061,0.00000132,0.00000058,-0.00004421,0.00002121,0.000038
 35,0.00004086,-0.00001778,-0.00000772,0.00005424,0.00003038,-0.0000284
 2,-0.00002066,-0.00006972,0.00006454,-0.00004143,0.00003427,0.00001661
 ,0.00000658,-0.00000246,-0.00000686,0.00000230,0.00000644,0.00000209,0
 .00000379,0.00000386,0.00000468,-0.00000399,-0.00000075,-0.00000608,-0
 .00000318,-0.00001035,0.00000260,0.00000124,-0.00000399,0.00000675,-0.
 00001175,0.00000523,-0.00000231,0.00000143,0.00000739,0.00000147,0.000
 08354,-0.00007373,-0.00001390,0.00001796,0.00005507,-0.00000648,-0.000
 07120,0.00002074,-0.00003397,-0.00000049,-0.00001810,0.00002191,0.0000
 0177,0.00001039,-0.00000592,0.00000139,-0.00000192,-0.00000201,-0.0000
 0048,0.00000085,-0.00000275,0.00000138,-0.00000263,0.00000132,0.000000
 91,0.00000220,0.00000114,-0.00000910,-0.00001628,0.00000806,-0.0000053
 4,-0.00000130,0.00000359,0.00000038,0.00001453,-0.00001229,0.00000366,
 0.00000177,0.00000170,0.00000039,-0.00000619,0.00000402,-0.00000099,0.
 00000019,-0.00000044,0.00000084,0.00000216,0.00000065,0.00000408,-0.00
 000201,-0.00000061,0.00002260,0.00000191,0.00000580,-0.00000735,-0.000
 00061,0.00000095,0.00000274,-0.00000356,0.00000157,-0.00001460,0.00000
 016,-0.00000366,0.00000277,0.00000398,-0.00000130,-0.00000385,-0.00001
 390,0.00000305,0.00000710,0.00000099,-0.00000254,0.00003241,0.00001801
 ,0.00000618,-0.00000080,-0.00000287,-0.00000035,-0.00000347,-0.0000006
 4,-0.00000178,-0.00000033,0.00002119,-0.00000209,0.00000221,-0.0000027
 7,0.00000024,0.00000239,-0.00000300,0.00000180,-0.00000185,-0.00000204
 ,-0.00000058,-0.00003887,-0.00003514,-0.00000755,0.00000045,-0.0000212
 4,-0.00000426,-0.00021473,0.00059278,0.00051118,-0.00068674,0.00170636
 ,-0.00291321,0.00380093,0.00085375,0.00062621,0.00423518,-0.00709405,-
 0.00085419,0.00026749,-0.00045575,-0.00009643,-0.00049451,-0.01036054,
 -0.00665276,-0.00004645,-0.00047928,-0.00047033,0.04290716,-0.28927997
 ,-0.07975424,-0.00093894,0.00027176,0.00104563,-0.00101562,0.00034957,
 0.00102133,-0.04766489,0.30424609,-0.00000468,0.00000829,-0.00000043,0
 .00000973,-0.00000139,-0.00000410,-0.00000953,0.00000098,0.00000346,-0
 .00000492,0.00000146,0.00000154,0.00000876,-0.00001087,-0.00000412,-0.
 00000003,-0.00000063,0.00000012,0.,0.00000060,0.00000028,0.00000038,-0
 .00000072,0.00000030,0.00000752,-0.00000416,-0.00000215,0.00001235,0.0
 0000297,-0.00000319,-0.00000331,-0.00000266,0.00000201,0.00000047,-0.0
 0000034,0.00000008,-0.00000390,0.00000632,-0.00000585,-0.00000086,-0.0
 0000065,0.00000856,-0.00000262,0.00002869,-0.00000388,-0.00001596,-0.0
 0000391,0.00000441,0.00000182,-0.00002611,0.00000604,0.00000835,0.0000
 0625,-0.00000080,-0.00000861,-0.00001818,0.00001810,-0.00006286,0.0000
 9041,0.00005557,0.00000157,-0.00000385,0.00000533,0.00003834,-0.000016
 25,0.00001605,0.00000118,-0.00000728,-0.00000194,0.00001145,0.00002882
 ,-0.00000531,0.00000174,0.00000091,-0.00000040,-0.00000706,-0.00001846
 ,-0.00000719,0.00001724,-0.00001418,-0.00001149,0.00053246,0.00044475,
 -0.00029210,-0.00009063,0.00000904,-0.00006211,0.00002613,0.00000571,-
 0.00003017,-0.00000307,-0.00000278,0.00000192,0.00000068,0.00000006,-0
 .00000083,0.00000076,0.00000018,0.00000016,0.00000550,0.00000242,0.000
 00020,-0.00000013,0.,0.00000092,-0.00000114,-0.00000004,-0.00000127,-0
 .00001878,0.00000778,0.00000316,0.00000075,0.00000036,-0.00000485,-0.0
 0000541,-0.00000479,0.00000223,0.00000082,0.00000037,-0.00000183,-0.00
 000214,-0.00001377,0.00000321,0.00001399,-0.00000238,-0.00000294,0.000
 00385,0.00000518,-0.00000045,0.00001981,0.00000534,0.00000023,0.000026
 22,-0.00000116,-0.00000716,-0.00000206,-0.00000879,0.00000767,0.000001
 36,0.00000362,-0.00000173,-0.00000710,-0.00000315,0.00000027,0.0000032
 8,0.00000029,0.00000029,-0.00000076,-0.00000662,0.00000025,-0.00000025
 ,0.00000362,-0.00000416,0.00000620,0.00000045,0.00000023,-0.00000580,-
 0.00000361,0.00000288,-0.00004268,-0.00001164,0.00002016,-0.00001016,0
 .00000513,-0.00000243,0.00004295,-0.00000749,0.00001697,-0.00000200,0.
 00001842,-0.00001362,-0.00000126,-0.00000451,-0.00000097,-0.00000087,0
 .00000177,0.00000085,0.00000070,0.00000068,-0.00000008,-0.00000006,0.0
 0000012,-0.00000115,-0.00000083,-0.00000014,0.00000029,0.00000210,0.00
 000610,0.00000030,0.00000190,-0.00000107,-0.00000323,0.00000147,-0.000
 00496,0.00000465,-0.00000158,-0.00000041,0.00000083,-0.00000067,0.0000
 0232,0.00000103,0.00000030,-0.00000032,-0.00000139,0.00000061,0.000000
 12,0.00000043,-0.00000062,0.00000012,0.,0.00001468,-0.00000791,-0.0000
 0060,-0.00000610,0.00000266,-0.00000286,-0.00000025,0.00000419,0.00000
 082,-0.00000551,-0.00000347,-0.00000088,0.00000090,0.00000022,0.000000
 07,0.00000177,-0.00000521,0.00000097,0.00000555,-0.00000120,-0.0000001
 6,0.00001321,0.00000747,0.00000312,-0.00000089,-0.00000146,0.00000023,
 -0.00000141,-0.00000012,-0.00000015,-0.00000042,0.00000856,-0.00000011
 ,0.00000109,-0.00000119,-0.00000011,0.00000079,-0.00000105,0.00000045,
 -0.00000081,-0.00000084,-0.00000009,-0.00001400,-0.00001427,-0.0000034
 6,0.00000131,0.00000824,0.00000535,-0.00009378,0.00027687,-0.00090023,
 -0.00543638,-0.00220325,0.00075447,-0.00459803,-0.00011126,0.00268437,
 0.00437255,-0.01965474,-0.00218023,0.00007688,-0.00102652,-0.00019440,
 -0.00227372,0.01192065,0.00657579,-0.00017648,0.00046747,0.00030994,0.
 00384163,-0.07958633,-0.06779835,0.00216791,0.00131795,-0.00120633,0.0
 0224614,0.00077608,-0.00150007,-0.00062702,0.08733605,0.06374484\\0.00
 000272,0.00001536,-0.00000030,-0.00000206,-0.00000430,0.00000211,0.000
 00373,-0.00000360,0.00000290,-0.00001517,0.00002366,0.00000977,-0.0000
 2247,-0.00000860,0.00001987,-0.00000578,0.00000078,0.00000555,-0.00000
 338,0.00000442,0.00000284,-0.00000327,0.00000145,0.00000080,-0.0000094
 0,-0.00000453,0.00000384,0.00001671,-0.00002458,-0.00000295,0.00000136
 ,0.00000658,-0.00000148,-0.00000212,-0.00000047,0.00000199,-0.00000287
 ,0.00003324,-0.00001160,0.00000792,-0.00001407,-0.00001572,-0.00000989
 ,-0.00000241,0.00001293,-0.00002720,-0.00000114,0.00000958,-0.00001153
 ,0.00000226,0.00002852,0.00009382,0.00008836,0.00012869,-0.00003616,-0
 .00004513,0.00001955,-0.00001323,-0.00001534,-0.00002782,0.00001723,-0
 .00001378,0.00000425,-0.00000132,0.00000661,-0.00000645,0.00000122,-0.
 00000164,0.00000383,0.00000607,-0.00000182,0.00000438,-0.00000092,0.00
 000385,0.00000071,0.00002773,-0.00001240,-0.00000751,-0.00000549,0.000
 00445,0.00000078,-0.00000647,0.00001174,0.00000018,0.00000447,-0.00001
 113,-0.00000306,-0.00000929,-0.00000158,-0.00001083,-0.00001427,-0.000
 00212,0.00000186,0.00000044,-0.00000600,-0.00000031,-0.00000039,-0.000
 00625,-0.00000002,-0.00000744,-0.00000290,-0.00000508,0.00000475,0.000
 00796,0.00000409,0.00000100,0.00000273,0.00000832,0.00001804,0.0000031
 3,0.00001094,-0.00000301,0.00000641,-0.00000350,0.00000031,-0.00002301
 ,-0.00000731,-0.00000142,-0.00000114,-0.00000049,0.00000296,0.00000885
 ,-0.00002250,0.00001125,-0.00000764,-0.00000485,0.00004613,0.00000741,
 -0.00001512,-0.00000166,-0.00007427,0.00004892,-0.00000267,0.00000352,
 -0.00000382,0.00000606,0.00000199,0.00000267,0.00000160,0.00000137,-0.
 00000415,-0.00000138,0.00000669,0.00000160,0.00000171,0.00000402,-0.00
 000209,0.00000452,0.00000623,-0.00000287,0.00000385,0.00000385,-0.0000
 0165,0.00000252,0.00000485,-0.00000141,0.00000308,0.00000466,0.0000004
 0,0.00001209,0.00000662,-0.00000289,-0.00000201,0.00000670,0.00000176,
 0.00000385,0.00000357,-0.00000053,0.00000281,0.00000255,-0.00000275,0.
 00000390,-0.00000053,0.00000737,0.00000121,0.00000050,-0.00000314,-0.0
 0008141,0.00000128,-0.00017709,0.00000043,-0.00000510,-0.00000286,0.00
 000403,-0.00000503,-0.00000232,0.00000232,-0.00000563,-0.00000541,0.00
 000345,-0.00000441,-0.00000157,0.00000033,-0.00000372,-0.00000128,-0.0
 0000057,-0.00000311,-0.00000166,-0.00000451,-0.00000713,-0.00000320,0.
 00000298,-0.00000570,-0.00000294,0.00000170,-0.00000450,-0.00000302,0.
 00000095,-0.00000479,-0.00000071,-0.00001867,0.00001511,0.,0.00000513,
 0.00000786,0.00000263,-0.00000710,0.00000078,0.00000107,-0.00000891,0.
 00000012,0.00000121,-0.00000242,-0.00000075,0.00000226,0.00000142,0.00
 000691,0.00000197,0.00000223,0.00000310,0.00000123,-0.00000262,-0.0000
 0558,0.00000058,-0.00000240,0.00000188,0.00000285,-0.00000063,0.000003
 73,0.00000117,-0.00000376,-0.00000026,0.00000429,-0.00000438,0.0000033
 1,0.00000337,-0.00000397,0.00000427,0.00000322,-0.00000426,0.00000461,
 0.00000392,0.00000064,0.00000972,0.00000449,-0.00000117,-0.00000073,-0
 .00000030,-0.00000518,0.00000102,0.00000908,0.00000404,-0.00000645,-0.
 00000339,0.00000361,-0.00000352,-0.00000021,0.00000252,0.00000216,-0.0
 0000182,0.00000151,0.00000105,-0.00000136,0.00000265,-0.00000148,-0.00
 000233,0.00000295,-0.00000295,0.00000003,0.00000299,-0.00000180,-0.000
 00260,0.00000387,0.00000018,-0.00000228,0.00000398,-0.00000040,-0.0000
 0285,0.00000539,-0.00000002,-0.00000300\\\@


 THE PROBLEM WITH THE LADDER OF SUCCESS IS YOU CAN'T
 CLIMB IT WHILE YOU'RE TWIDDLING YOUR THUMBS.
 Job cpu time:       1 days 17 hours 44 minutes 29.4 seconds.
 Elapsed time:       0 days  3 hours 28 minutes 53.3 seconds.
 File lengths (MBytes):  RWF=  18779 Int=      0 D2E=      0 Chk=    137 Scr=      1
 Normal termination of Gaussian 16 at Wed Jun  8 01:44:46 2022.
