 Entering Gaussian System, Link 0=g16
 Input=Pro_R_E_TS.com
 Output=Pro_R_E_TS.log
 Initial command:
 /apps/gaussian16/B.01/AVX2/g16/l1.exe "/tmp/49306635/Gau-9983.inp" -scrdir="/tmp/49306635/"
 Entering Link 1 = /apps/gaussian16/B.01/AVX2/g16/l1.exe PID=      9984.
  
 Copyright (c) 1988-2017, Gaussian, Inc.  All Rights Reserved.
  
 This is part of the Gaussian(R) 16 program.  It is based on
 the Gaussian(R) 09 system (copyright 2009, Gaussian, Inc.),
 the Gaussian(R) 03 system (copyright 2003, Gaussian, Inc.),
 the Gaussian(R) 98 system (copyright 1998, Gaussian, Inc.),
 the Gaussian(R) 94 system (copyright 1995, Gaussian, Inc.),
 the Gaussian 92(TM) system (copyright 1992, Gaussian, Inc.),
 the Gaussian 90(TM) system (copyright 1990, Gaussian, Inc.),
 the Gaussian 88(TM) system (copyright 1988, Gaussian, Inc.),
 the Gaussian 86(TM) system (copyright 1986, Carnegie Mellon
 University), and the Gaussian 82(TM) system (copyright 1983,
 Carnegie Mellon University). Gaussian is a federally registered
 trademark of Gaussian, Inc.
  
 This software contains proprietary and confidential information,
 including trade secrets, belonging to Gaussian, Inc.
  
 This software is provided under written license and may be
 used, copied, transmitted, or stored only in accord with that
 written license.
  
 The following legend is applicable only to US Government
 contracts under FAR:
  
                    RESTRICTED RIGHTS LEGEND
  
 Use, reproduction and disclosure by the US Government is
 subject to restrictions as set forth in subparagraphs (a)
 and (c) of the Commercial Computer Software - Restricted
 Rights clause in FAR 52.227-19.
  
 Gaussian, Inc.
 340 Quinnipiac St., Bldg. 40, Wallingford CT 06492
  
  
 ---------------------------------------------------------------
 Warning -- This program may not be used in any manner that
 competes with the business of Gaussian, Inc. or will provide
 assistance to any competitor of Gaussian, Inc.  The licensee
 of this program is prohibited from giving any competitor of
 Gaussian, Inc. access to this program.  By using this program,
 the user acknowledges that Gaussian, Inc. is engaged in the
 business of creating and licensing software in the field of
 computational chemistry and represents and warrants to the
 licensee that it is not a competitor of Gaussian, Inc. and that
 it will not use this program in any manner prohibited above.
 ---------------------------------------------------------------
  

 Cite this work as:
 Gaussian 16, Revision B.01,
 M. J. Frisch, G. W. Trucks, H. B. Schlegel, G. E. Scuseria, 
 M. A. Robb, J. R. Cheeseman, G. Scalmani, V. Barone, 
 G. A. Petersson, H. Nakatsuji, X. Li, M. Caricato, A. V. Marenich, 
 J. Bloino, B. G. Janesko, R. Gomperts, B. Mennucci, H. P. Hratchian, 
 J. V. Ortiz, A. F. Izmaylov, J. L. Sonnenberg, D. Williams-Young, 
 F. Ding, F. Lipparini, F. Egidi, J. Goings, B. Peng, A. Petrone, 
 T. Henderson, D. Ranasinghe, V. G. Zakrzewski, J. Gao, N. Rega, 
 G. Zheng, W. Liang, M. Hada, M. Ehara, K. Toyota, R. Fukuda, 
 J. Hasegawa, M. Ishida, T. Nakajima, Y. Honda, O. Kitao, H. Nakai, 
 T. Vreven, K. Throssell, J. A. Montgomery, Jr., J. E. Peralta, 
 F. Ogliaro, M. J. Bearpark, J. J. Heyd, E. N. Brothers, K. N. Kudin, 
 V. N. Staroverov, T. A. Keith, R. Kobayashi, J. Normand, 
 K. Raghavachari, A. P. Rendell, J. C. Burant, S. S. Iyengar, 
 J. Tomasi, M. Cossi, J. M. Millam, M. Klene, C. Adamo, R. Cammi, 
 J. W. Ochterski, R. L. Martin, K. Morokuma, O. Farkas, 
 J. B. Foresman, and D. J. Fox, Gaussian, Inc., Wallingford CT, 2016.
 
 ******************************************
 Gaussian 16:  ES64L-G16RevB.01 20-Dec-2017
                16-May-2022 
 ******************************************
 %nprocshared=12
 Will use up to   12 processors via shared memory.
 %mem=20GB
 %chk=Pro_R_E_TS.chk
 ----------------------------------------------------------------------
 #opt=(calcfc,ts,noeigen) freq=noraman bp86/gen pseudo=read integral=ul
 trafine temperature=308 scrf=(read)
 ----------------------------------------------------------------------
 1/5=1,10=4,11=1,18=20,26=6,38=1,40=2,112=308000/1,3;
 2/9=110,12=2,17=6,18=5,40=1/2;
 3/5=7,11=2,16=1,17=8,25=1,30=1,70=2203,71=2,74=404,75=-5,140=1/1,2,3;
 4//1;
 5/5=2,38=5/2;
 8/6=4,10=90,11=11/1;
 11/6=1,8=1,9=11,15=111,16=1/1,2,10;
 10/6=1,13=1/2;
 6/7=2,8=2,9=2,10=2,28=1/1;
 7/10=1,18=20,25=1/1,2,3,16;
 1/5=1,10=4,11=1,18=20,26=6/3(2);
 2/9=110/2;
 99//99;
 2/9=110/2;
 3/5=7,6=1,11=2,16=1,17=8,25=1,30=1,70=2205,71=1,74=404,75=-5,82=7/1,2,3;
 4/5=5,16=3,69=1/1;
 5/5=2,38=5/2;
 7//1,2,3,16;
 1/5=1,11=1,18=20,26=6/3(-5);
 2/9=110/2;
 6/7=2,8=2,9=2,10=2,19=2,28=1/1;
 99/9=1/99;
 -------------------
 Title Card Required
 -------------------
 Symbolic Z-matrix:
 Charge =  0 Multiplicity = 2
 C                     2.38586  -2.69579   2.62637 
 C                     1.41979  -2.53676   3.61743 
 C                     0.21084  -1.87237   3.32478 
 C                     0.03816  -1.34264   1.9926 
 C                     2.15123  -2.16632   1.35138 
 H                    -0.72605  -2.10813   5.27976 
 H                     3.32057  -3.22368   2.81402 
 H                     1.5774   -2.94034   4.62091 
 C                    -0.85808  -1.72896   4.26394 
 C                    -2.1897   -0.72771   2.53256 
 C                    -2.06365  -1.18507   3.85396 
 H                    -2.9297   -1.13469   4.51638 
 N                    -1.1257   -0.71242   1.63882 
 N                     1.00303  -1.49775   1.04238 
 C                     3.13673  -2.34733   0.27379 
 C                    -3.41351  -0.36919   1.8856 
 N                     3.30209  -1.58757  -0.75278 
 N                    -3.43617  -0.15782   0.57945 
 Ni                   -1.56796   0.25144  -0.00246 
 C                     0.26549   0.81316  -0.00316 
 C                     0.68702   1.77194   0.85806 
 C                    -1.4851    0.38114  -2.11232 
 H                    -2.24637  -0.28217  -2.5344 
 C                    -1.90782   1.59867  -1.52144 
 H                    -1.14384   2.35813  -1.32523 
 C                    -0.09834   0.02582  -2.409 
 H                     0.08523  -0.69532  -3.20684 
 C                     0.96393   0.84513  -1.87044 
 H                     0.85318   1.93287  -1.82258 
 H                    -0.04879   2.10111   1.60729 
 C                    -5.55137   0.17354   1.54214 
 H                    -5.68717   1.25599   1.7005 
 H                    -6.49912  -0.35048   1.71931 
 C                     4.77746  -3.47925  -0.77523 
 H                     4.62009  -4.43911  -1.28634 
 H                     5.82154  -3.41632  -0.42916 
 C                     4.31592  -2.24655  -1.60997 
 H                     3.78785  -2.58559  -2.52184 
 C                    -4.87154  -0.13998   0.19084 
 H                    -5.05016   0.67035  -0.53125 
 O                     3.91822  -3.46587   0.40398 
 O                    -4.59447  -0.30614   2.54921 
 Ni                    0.55922  -0.86034  -0.75193 
 Cl                    0.25588  -2.91488  -1.5684 
 C                     5.46236  -1.29438  -2.07072 
 C                     6.21268  -0.69844  -0.86267 
 H                     5.5191   -0.16267  -0.19601 
 H                     6.72685  -1.4705   -0.26634 
 H                     6.9821    0.01319  -1.20487 
 C                     6.43874  -2.09931  -2.957 
 H                     5.91906  -2.5388   -3.82541 
 H                     7.23784  -1.44373  -3.3405 
 H                     6.92535  -2.9183   -2.40104 
 C                     4.85684  -0.15092  -2.91026 
 H                     4.18368   0.47211  -2.30286 
 H                     5.65361   0.49878  -3.30936 
 H                     4.28181  -0.54584  -3.76477 
 C                    -5.3376   -1.49251  -0.46088 
 C                    -5.2235   -2.67445   0.52565 
 H                    -4.18083  -2.82661   0.84566 
 H                    -5.84594  -2.53783   1.42472 
 H                    -5.55466  -3.60297   0.03246 
 C                    -4.47014  -1.8003   -1.69729 
 H                    -4.53918  -0.9892   -2.44053 
 H                    -3.41474  -1.93877  -1.41822 
 H                    -4.81469  -2.72907  -2.18085 
 C                    -6.80584  -1.32162  -0.91055 
 H                    -6.91134  -0.47888  -1.61427 
 H                    -7.15349  -2.23421  -1.42157 
 H                    -7.4881   -1.14395  -0.06222 
 C                     1.95829   2.49385   0.90292 
 C                     2.03947   3.72022   1.5978 
 C                     3.14425   2.01121   0.2929 
 C                     3.22649   4.45837   1.66722 
 H                     1.14457   4.10935   2.09362 
 C                     4.33024   2.73487   0.35542 
 H                     3.13213   1.03145  -0.19289 
 C                     4.38306   3.96943   1.03456 
 H                     3.23877   5.40323   2.21285 
 H                     5.24705   2.35909  -0.10448 
 C                     5.7024    5.849     1.71758 
 H                     5.02516   6.60723   1.28427 
 H                     5.4844    5.73706   2.79521 
 H                     6.7424    6.17523   1.58939 
 O                     5.60175   4.60029   1.02898 
 H                     1.98627   0.55102  -2.1288 
 C                    -3.25955   2.18325  -1.68027 
 C                    -4.10774   1.84152  -2.75595 
 C                    -3.70362   3.17674  -0.77824 
 C                    -5.36143   2.44837  -2.90671 
 H                    -3.76531   1.1188   -3.50072 
 C                    -4.95534   3.78073  -0.92617 
 H                    -3.05243   3.46467   0.05241 
 C                    -5.79556   3.41454  -1.98958 
 H                    -5.99507   2.17565  -3.75511 
 H                    -5.27644   4.54591  -0.21397 
 H                    -6.77161   3.89108  -2.1108 
 

 GradGradGradGradGradGradGradGradGradGradGradGradGradGradGradGradGradGrad
 Berny optimization.
 Initialization pass.
                           ----------------------------
                           !    Initial Parameters    !
                           ! (Angstroms and Degrees)  !
 --------------------------                            --------------------------
 ! Name  Definition              Value          Derivative Info.                !
 --------------------------------------------------------------------------------
 ! R1    R(1,2)                  1.3931         calculate D2E/DX2 analytically  !
 ! R2    R(1,5)                  1.4004         calculate D2E/DX2 analytically  !
 ! R3    R(1,7)                  1.0898         calculate D2E/DX2 analytically  !
 ! R4    R(2,3)                  1.4102         calculate D2E/DX2 analytically  !
 ! R5    R(2,8)                  1.093          calculate D2E/DX2 analytically  !
 ! R6    R(3,4)                  1.444          calculate D2E/DX2 analytically  !
 ! R7    R(3,9)                  1.4301         calculate D2E/DX2 analytically  !
 ! R8    R(4,13)                 1.37           calculate D2E/DX2 analytically  !
 ! R9    R(4,14)                 1.3631         calculate D2E/DX2 analytically  !
 ! R10   R(5,14)                 1.3641         calculate D2E/DX2 analytically  !
 ! R11   R(5,15)                 1.4714         calculate D2E/DX2 analytically  !
 ! R12   R(6,9)                  1.0923         calculate D2E/DX2 analytically  !
 ! R13   R(9,11)                 1.3847         calculate D2E/DX2 analytically  !
 ! R14   R(10,11)                1.404          calculate D2E/DX2 analytically  !
 ! R15   R(10,13)                1.3896         calculate D2E/DX2 analytically  !
 ! R16   R(10,16)                1.43           calculate D2E/DX2 analytically  !
 ! R17   R(11,12)                1.0915         calculate D2E/DX2 analytically  !
 ! R18   R(13,19)                1.9541         calculate D2E/DX2 analytically  !
 ! R19   R(14,43)                1.9552         calculate D2E/DX2 analytically  !
 ! R20   R(15,17)                1.2878         calculate D2E/DX2 analytically  !
 ! R21   R(15,41)                1.3707         calculate D2E/DX2 analytically  !
 ! R22   R(16,18)                1.3233         calculate D2E/DX2 analytically  !
 ! R23   R(16,42)                1.3561         calculate D2E/DX2 analytically  !
 ! R24   R(17,37)                1.4822         calculate D2E/DX2 analytically  !
 ! R25   R(18,19)                1.9991         calculate D2E/DX2 analytically  !
 ! R26   R(18,39)                1.4872         calculate D2E/DX2 analytically  !
 ! R27   R(19,20)                1.9176         calculate D2E/DX2 analytically  !
 ! R28   R(19,22)                2.1155         calculate D2E/DX2 analytically  !
 ! R29   R(19,24)                2.0586         calculate D2E/DX2 analytically  !
 ! R30   R(19,43)                2.5145         calculate D2E/DX2 analytically  !
 ! R31   R(20,21)                1.356          calculate D2E/DX2 analytically  !
 ! R32   R(20,43)                1.8568         calculate D2E/DX2 analytically  !
 ! R33   R(21,30)                1.1005         calculate D2E/DX2 analytically  !
 ! R34   R(21,71)                1.4626         calculate D2E/DX2 analytically  !
 ! R35   R(22,23)                1.0944         calculate D2E/DX2 analytically  !
 ! R36   R(22,24)                1.4178         calculate D2E/DX2 analytically  !
 ! R37   R(22,26)                1.462          calculate D2E/DX2 analytically  !
 ! R38   R(24,25)                1.095          calculate D2E/DX2 analytically  !
 ! R39   R(24,87)                1.4813         calculate D2E/DX2 analytically  !
 ! R40   R(26,27)                1.091          calculate D2E/DX2 analytically  !
 ! R41   R(26,28)                1.4456         calculate D2E/DX2 analytically  !
 ! R42   R(26,43)                1.9909         calculate D2E/DX2 analytically  !
 ! R43   R(28,29)                1.0944         calculate D2E/DX2 analytically  !
 ! R44   R(28,43)                2.0793         calculate D2E/DX2 analytically  !
 ! R45   R(28,86)                1.0947         calculate D2E/DX2 analytically  !
 ! R46   R(31,32)                1.1024         calculate D2E/DX2 analytically  !
 ! R47   R(31,33)                1.0974         calculate D2E/DX2 analytically  !
 ! R48   R(31,39)                1.5448         calculate D2E/DX2 analytically  !
 ! R49   R(31,42)                1.4697         calculate D2E/DX2 analytically  !
 ! R50   R(34,35)                1.0988         calculate D2E/DX2 analytically  !
 ! R51   R(34,36)                1.1017         calculate D2E/DX2 analytically  !
 ! R52   R(34,37)                1.5586         calculate D2E/DX2 analytically  !
 ! R53   R(34,41)                1.4591         calculate D2E/DX2 analytically  !
 ! R54   R(37,38)                1.1069         calculate D2E/DX2 analytically  !
 ! R55   R(37,45)                1.5599         calculate D2E/DX2 analytically  !
 ! R56   R(39,40)                1.1            calculate D2E/DX2 analytically  !
 ! R57   R(39,58)                1.572          calculate D2E/DX2 analytically  !
 ! R58   R(43,44)                2.2315         calculate D2E/DX2 analytically  !
 ! R59   R(45,46)                1.5419         calculate D2E/DX2 analytically  !
 ! R60   R(45,50)                1.5449         calculate D2E/DX2 analytically  !
 ! R61   R(45,54)                1.5424         calculate D2E/DX2 analytically  !
 ! R62   R(46,47)                1.1012         calculate D2E/DX2 analytically  !
 ! R63   R(46,48)                1.1028         calculate D2E/DX2 analytically  !
 ! R64   R(46,49)                1.1025         calculate D2E/DX2 analytically  !
 ! R65   R(50,51)                1.1033         calculate D2E/DX2 analytically  !
 ! R66   R(50,52)                1.1025         calculate D2E/DX2 analytically  !
 ! R67   R(50,53)                1.103          calculate D2E/DX2 analytically  !
 ! R68   R(54,55)                1.1001         calculate D2E/DX2 analytically  !
 ! R69   R(54,56)                1.1028         calculate D2E/DX2 analytically  !
 ! R70   R(54,57)                1.1031         calculate D2E/DX2 analytically  !
 ! R71   R(58,59)                1.5438         calculate D2E/DX2 analytically  !
 ! R72   R(58,63)                1.5414         calculate D2E/DX2 analytically  !
 ! R73   R(58,67)                1.545          calculate D2E/DX2 analytically  !
 ! R74   R(59,60)                1.1012         calculate D2E/DX2 analytically  !
 ! R75   R(59,61)                1.102          calculate D2E/DX2 analytically  !
 ! R76   R(59,62)                1.1023         calculate D2E/DX2 analytically  !
 ! R77   R(63,64)                1.1023         calculate D2E/DX2 analytically  !
 ! R78   R(63,65)                1.1004         calculate D2E/DX2 analytically  !
 ! R79   R(63,66)                1.1023         calculate D2E/DX2 analytically  !
 ! R80   R(67,68)                1.103          calculate D2E/DX2 analytically  !
 ! R81   R(67,69)                1.1022         calculate D2E/DX2 analytically  !
 ! R82   R(67,70)                1.103          calculate D2E/DX2 analytically  !
 ! R83   R(71,72)                1.4119         calculate D2E/DX2 analytically  !
 ! R84   R(71,73)                1.4183         calculate D2E/DX2 analytically  !
 ! R85   R(72,74)                1.3995         calculate D2E/DX2 analytically  !
 ! R86   R(72,75)                1.0946         calculate D2E/DX2 analytically  !
 ! R87   R(73,76)                1.3907         calculate D2E/DX2 analytically  !
 ! R88   R(73,77)                1.0936         calculate D2E/DX2 analytically  !
 ! R89   R(74,78)                1.4061         calculate D2E/DX2 analytically  !
 ! R90   R(74,79)                1.0912         calculate D2E/DX2 analytically  !
 ! R91   R(76,78)                1.41           calculate D2E/DX2 analytically  !
 ! R92   R(76,80)                1.0924         calculate D2E/DX2 analytically  !
 ! R93   R(78,85)                1.3723         calculate D2E/DX2 analytically  !
 ! R94   R(81,82)                1.1051         calculate D2E/DX2 analytically  !
 ! R95   R(81,83)                1.1052         calculate D2E/DX2 analytically  !
 ! R96   R(81,84)                1.0975         calculate D2E/DX2 analytically  !
 ! R97   R(81,85)                1.4295         calculate D2E/DX2 analytically  !
 ! R98   R(87,88)                1.4118         calculate D2E/DX2 analytically  !
 ! R99   R(87,89)                1.4135         calculate D2E/DX2 analytically  !
 ! R100  R(88,90)                1.401          calculate D2E/DX2 analytically  !
 ! R101  R(88,91)                1.0928         calculate D2E/DX2 analytically  !
 ! R102  R(89,92)                1.3977         calculate D2E/DX2 analytically  !
 ! R103  R(89,93)                1.094          calculate D2E/DX2 analytically  !
 ! R104  R(90,94)                1.4011         calculate D2E/DX2 analytically  !
 ! R105  R(90,95)                1.0935         calculate D2E/DX2 analytically  !
 ! R106  R(92,94)                1.4039         calculate D2E/DX2 analytically  !
 ! R107  R(92,96)                1.0935         calculate D2E/DX2 analytically  !
 ! R108  R(94,97)                1.0929         calculate D2E/DX2 analytically  !
 ! A1    A(2,1,5)              119.2329         calculate D2E/DX2 analytically  !
 ! A2    A(2,1,7)              121.8427         calculate D2E/DX2 analytically  !
 ! A3    A(5,1,7)              118.9242         calculate D2E/DX2 analytically  !
 ! A4    A(1,2,3)              120.0428         calculate D2E/DX2 analytically  !
 ! A5    A(1,2,8)              120.7292         calculate D2E/DX2 analytically  !
 ! A6    A(3,2,8)              119.216          calculate D2E/DX2 analytically  !
 ! A7    A(2,3,4)              117.8276         calculate D2E/DX2 analytically  !
 ! A8    A(2,3,9)              123.4865         calculate D2E/DX2 analytically  !
 ! A9    A(4,3,9)              118.6652         calculate D2E/DX2 analytically  !
 ! A10   A(3,4,13)             120.5696         calculate D2E/DX2 analytically  !
 ! A11   A(3,4,14)             121.1138         calculate D2E/DX2 analytically  !
 ! A12   A(13,4,14)            118.2735         calculate D2E/DX2 analytically  !
 ! A13   A(1,5,14)             122.1801         calculate D2E/DX2 analytically  !
 ! A14   A(1,5,15)             120.5334         calculate D2E/DX2 analytically  !
 ! A15   A(14,5,15)            117.267          calculate D2E/DX2 analytically  !
 ! A16   A(3,9,6)              119.0507         calculate D2E/DX2 analytically  !
 ! A17   A(3,9,11)             119.7167         calculate D2E/DX2 analytically  !
 ! A18   A(6,9,11)             121.128          calculate D2E/DX2 analytically  !
 ! A19   A(11,10,13)           122.6948         calculate D2E/DX2 analytically  !
 ! A20   A(11,10,16)           125.7554         calculate D2E/DX2 analytically  !
 ! A21   A(13,10,16)           111.1948         calculate D2E/DX2 analytically  !
 ! A22   A(9,11,10)            118.9988         calculate D2E/DX2 analytically  !
 ! A23   A(9,11,12)            121.9549         calculate D2E/DX2 analytically  !
 ! A24   A(10,11,12)           119.0079         calculate D2E/DX2 analytically  !
 ! A25   A(4,13,10)            118.6401         calculate D2E/DX2 analytically  !
 ! A26   A(4,13,19)            129.4999         calculate D2E/DX2 analytically  !
 ! A27   A(10,13,19)           111.8595         calculate D2E/DX2 analytically  !
 ! A28   A(4,14,5)             119.5829         calculate D2E/DX2 analytically  !
 ! A29   A(4,14,43)            116.23           calculate D2E/DX2 analytically  !
 ! A30   A(5,14,43)            123.9673         calculate D2E/DX2 analytically  !
 ! A31   A(5,15,17)            126.6697         calculate D2E/DX2 analytically  !
 ! A32   A(5,15,41)            114.3733         calculate D2E/DX2 analytically  !
 ! A33   A(17,15,41)           118.943          calculate D2E/DX2 analytically  !
 ! A34   A(10,16,18)           120.0831         calculate D2E/DX2 analytically  !
 ! A35   A(10,16,42)           122.3817         calculate D2E/DX2 analytically  !
 ! A36   A(18,16,42)           117.4295         calculate D2E/DX2 analytically  !
 ! A37   A(15,17,37)           106.6514         calculate D2E/DX2 analytically  !
 ! A38   A(16,18,19)           107.6985         calculate D2E/DX2 analytically  !
 ! A39   A(16,18,39)           106.0432         calculate D2E/DX2 analytically  !
 ! A40   A(19,18,39)           145.4339         calculate D2E/DX2 analytically  !
 ! A41   A(13,19,18)            82.3013         calculate D2E/DX2 analytically  !
 ! A42   A(13,19,20)            85.8938         calculate D2E/DX2 analytically  !
 ! A43   A(13,19,22)           149.2131         calculate D2E/DX2 analytically  !
 ! A44   A(13,19,43)            80.8389         calculate D2E/DX2 analytically  !
 ! A45   A(18,19,20)           162.4807         calculate D2E/DX2 analytically  !
 ! A46   A(18,19,22)           109.845          calculate D2E/DX2 analytically  !
 ! A47   A(18,19,24)           101.2145         calculate D2E/DX2 analytically  !
 ! A48   A(18,19,43)           141.8904         calculate D2E/DX2 analytically  !
 ! A49   A(20,19,22)            86.8027         calculate D2E/DX2 analytically  !
 ! A50   A(20,19,24)            88.0445         calculate D2E/DX2 analytically  !
 ! A51   A(22,19,43)            72.3442         calculate D2E/DX2 analytically  !
 ! A52   A(24,19,43)           102.0692         calculate D2E/DX2 analytically  !
 ! A53   A(19,20,21)           120.2734         calculate D2E/DX2 analytically  !
 ! A54   A(21,20,43)           147.5916         calculate D2E/DX2 analytically  !
 ! A55   A(20,21,30)           115.8522         calculate D2E/DX2 analytically  !
 ! A56   A(20,21,71)           129.693          calculate D2E/DX2 analytically  !
 ! A57   A(30,21,71)           114.369          calculate D2E/DX2 analytically  !
 ! A58   A(19,22,23)           108.6779         calculate D2E/DX2 analytically  !
 ! A59   A(19,22,26)           102.9823         calculate D2E/DX2 analytically  !
 ! A60   A(23,22,24)           118.2823         calculate D2E/DX2 analytically  !
 ! A61   A(23,22,26)           115.7379         calculate D2E/DX2 analytically  !
 ! A62   A(24,22,26)           125.1762         calculate D2E/DX2 analytically  !
 ! A63   A(19,24,25)           101.9173         calculate D2E/DX2 analytically  !
 ! A64   A(19,24,87)           119.2125         calculate D2E/DX2 analytically  !
 ! A65   A(22,24,25)           117.5334         calculate D2E/DX2 analytically  !
 ! A66   A(22,24,87)           124.492          calculate D2E/DX2 analytically  !
 ! A67   A(25,24,87)           112.4699         calculate D2E/DX2 analytically  !
 ! A68   A(22,26,27)           117.9465         calculate D2E/DX2 analytically  !
 ! A69   A(22,26,28)           118.9257         calculate D2E/DX2 analytically  !
 ! A70   A(22,26,43)           104.6294         calculate D2E/DX2 analytically  !
 ! A71   A(27,26,28)           121.563          calculate D2E/DX2 analytically  !
 ! A72   A(27,26,43)           105.0041         calculate D2E/DX2 analytically  !
 ! A73   A(26,28,29)           120.3474         calculate D2E/DX2 analytically  !
 ! A74   A(26,28,86)           116.4905         calculate D2E/DX2 analytically  !
 ! A75   A(29,28,43)           140.5332         calculate D2E/DX2 analytically  !
 ! A76   A(29,28,86)           111.8297         calculate D2E/DX2 analytically  !
 ! A77   A(43,28,86)            95.0692         calculate D2E/DX2 analytically  !
 ! A78   A(32,31,33)           109.8349         calculate D2E/DX2 analytically  !
 ! A79   A(32,31,39)           112.2812         calculate D2E/DX2 analytically  !
 ! A80   A(32,31,42)           107.5929         calculate D2E/DX2 analytically  !
 ! A81   A(33,31,39)           115.1118         calculate D2E/DX2 analytically  !
 ! A82   A(33,31,42)           107.2079         calculate D2E/DX2 analytically  !
 ! A83   A(39,31,42)           104.2777         calculate D2E/DX2 analytically  !
 ! A84   A(35,34,36)           109.3746         calculate D2E/DX2 analytically  !
 ! A85   A(35,34,37)           113.5378         calculate D2E/DX2 analytically  !
 ! A86   A(35,34,41)           107.4333         calculate D2E/DX2 analytically  !
 ! A87   A(36,34,37)           113.8078         calculate D2E/DX2 analytically  !
 ! A88   A(36,34,41)           107.6789         calculate D2E/DX2 analytically  !
 ! A89   A(37,34,41)           104.5478         calculate D2E/DX2 analytically  !
 ! A90   A(17,37,34)           104.149          calculate D2E/DX2 analytically  !
 ! A91   A(17,37,38)           106.6347         calculate D2E/DX2 analytically  !
 ! A92   A(17,37,45)           113.713          calculate D2E/DX2 analytically  !
 ! A93   A(34,37,38)           109.8891         calculate D2E/DX2 analytically  !
 ! A94   A(34,37,45)           115.0444         calculate D2E/DX2 analytically  !
 ! A95   A(38,37,45)           107.1129         calculate D2E/DX2 analytically  !
 ! A96   A(18,39,31)           101.4555         calculate D2E/DX2 analytically  !
 ! A97   A(18,39,40)           109.7007         calculate D2E/DX2 analytically  !
 ! A98   A(18,39,58)           112.5912         calculate D2E/DX2 analytically  !
 ! A99   A(31,39,40)           110.6866         calculate D2E/DX2 analytically  !
 ! A100  A(31,39,58)           114.0027         calculate D2E/DX2 analytically  !
 ! A101  A(40,39,58)           108.2719         calculate D2E/DX2 analytically  !
 ! A102  A(15,41,34)           105.4543         calculate D2E/DX2 analytically  !
 ! A103  A(16,42,31)           104.2921         calculate D2E/DX2 analytically  !
 ! A104  A(14,43,19)            93.5912         calculate D2E/DX2 analytically  !
 ! A105  A(14,43,20)            87.6877         calculate D2E/DX2 analytically  !
 ! A106  A(14,43,28)           135.7972         calculate D2E/DX2 analytically  !
 ! A107  A(14,43,44)            93.8117         calculate D2E/DX2 analytically  !
 ! A108  A(19,43,26)            76.8128         calculate D2E/DX2 analytically  !
 ! A109  A(19,43,28)            87.8414         calculate D2E/DX2 analytically  !
 ! A110  A(19,43,44)           113.6491         calculate D2E/DX2 analytically  !
 ! A111  A(20,43,26)            83.2363         calculate D2E/DX2 analytically  !
 ! A112  A(20,43,28)            60.5581         calculate D2E/DX2 analytically  !
 ! A113  A(20,43,44)           162.9124         calculate D2E/DX2 analytically  !
 ! A114  A(26,43,44)            93.4615         calculate D2E/DX2 analytically  !
 ! A115  A(28,43,44)           125.7888         calculate D2E/DX2 analytically  !
 ! A116  A(37,45,46)           111.2316         calculate D2E/DX2 analytically  !
 ! A117  A(37,45,50)           108.4157         calculate D2E/DX2 analytically  !
 ! A118  A(37,45,54)           108.9518         calculate D2E/DX2 analytically  !
 ! A119  A(46,45,50)           110.0774         calculate D2E/DX2 analytically  !
 ! A120  A(46,45,54)           109.3269         calculate D2E/DX2 analytically  !
 ! A121  A(50,45,54)           108.7912         calculate D2E/DX2 analytically  !
 ! A122  A(45,46,47)           110.8477         calculate D2E/DX2 analytically  !
 ! A123  A(45,46,48)           112.332          calculate D2E/DX2 analytically  !
 ! A124  A(45,46,49)           110.2363         calculate D2E/DX2 analytically  !
 ! A125  A(47,46,48)           107.8743         calculate D2E/DX2 analytically  !
 ! A126  A(47,46,49)           108.266          calculate D2E/DX2 analytically  !
 ! A127  A(48,46,49)           107.1188         calculate D2E/DX2 analytically  !
 ! A128  A(45,50,51)           111.1852         calculate D2E/DX2 analytically  !
 ! A129  A(45,50,52)           110.3548         calculate D2E/DX2 analytically  !
 ! A130  A(45,50,53)           112.1186         calculate D2E/DX2 analytically  !
 ! A131  A(51,50,52)           107.7267         calculate D2E/DX2 analytically  !
 ! A132  A(51,50,53)           107.9839         calculate D2E/DX2 analytically  !
 ! A133  A(52,50,53)           107.2832         calculate D2E/DX2 analytically  !
 ! A134  A(45,54,55)           111.0729         calculate D2E/DX2 analytically  !
 ! A135  A(45,54,56)           110.4929         calculate D2E/DX2 analytically  !
 ! A136  A(45,54,57)           111.155          calculate D2E/DX2 analytically  !
 ! A137  A(55,54,56)           107.9536         calculate D2E/DX2 analytically  !
 ! A138  A(55,54,57)           108.1486         calculate D2E/DX2 analytically  !
 ! A139  A(56,54,57)           107.8899         calculate D2E/DX2 analytically  !
 ! A140  A(39,58,59)           111.8315         calculate D2E/DX2 analytically  !
 ! A141  A(39,58,63)           109.7245         calculate D2E/DX2 analytically  !
 ! A142  A(39,58,67)           107.8922         calculate D2E/DX2 analytically  !
 ! A143  A(59,58,63)           108.5495         calculate D2E/DX2 analytically  !
 ! A144  A(59,58,67)           109.9318         calculate D2E/DX2 analytically  !
 ! A145  A(63,58,67)           108.8701         calculate D2E/DX2 analytically  !
 ! A146  A(58,59,60)           111.1896         calculate D2E/DX2 analytically  !
 ! A147  A(58,59,61)           112.6248         calculate D2E/DX2 analytically  !
 ! A148  A(58,59,62)           109.6818         calculate D2E/DX2 analytically  !
 ! A149  A(60,59,61)           108.3508         calculate D2E/DX2 analytically  !
 ! A150  A(60,59,62)           107.3427         calculate D2E/DX2 analytically  !
 ! A151  A(61,59,62)           107.4438         calculate D2E/DX2 analytically  !
 ! A152  A(58,63,64)           111.0186         calculate D2E/DX2 analytically  !
 ! A153  A(58,63,65)           111.1887         calculate D2E/DX2 analytically  !
 ! A154  A(58,63,66)           110.1336         calculate D2E/DX2 analytically  !
 ! A155  A(64,63,65)           108.8841         calculate D2E/DX2 analytically  !
 ! A156  A(64,63,66)           107.7351         calculate D2E/DX2 analytically  !
 ! A157  A(65,63,66)           107.7586         calculate D2E/DX2 analytically  !
 ! A158  A(58,67,68)           111.1677         calculate D2E/DX2 analytically  !
 ! A159  A(58,67,69)           110.066          calculate D2E/DX2 analytically  !
 ! A160  A(58,67,70)           112.4431         calculate D2E/DX2 analytically  !
 ! A161  A(68,67,69)           107.8572         calculate D2E/DX2 analytically  !
 ! A162  A(68,67,70)           107.9655         calculate D2E/DX2 analytically  !
 ! A163  A(69,67,70)           107.1484         calculate D2E/DX2 analytically  !
 ! A164  A(21,71,72)           119.59           calculate D2E/DX2 analytically  !
 ! A165  A(21,71,73)           123.0674         calculate D2E/DX2 analytically  !
 ! A166  A(72,71,73)           117.3347         calculate D2E/DX2 analytically  !
 ! A167  A(71,72,74)           122.0939         calculate D2E/DX2 analytically  !
 ! A168  A(71,72,75)           118.9944         calculate D2E/DX2 analytically  !
 ! A169  A(74,72,75)           118.9108         calculate D2E/DX2 analytically  !
 ! A170  A(71,73,76)           121.1091         calculate D2E/DX2 analytically  !
 ! A171  A(71,73,77)           119.1208         calculate D2E/DX2 analytically  !
 ! A172  A(76,73,77)           119.707          calculate D2E/DX2 analytically  !
 ! A173  A(72,74,78)           119.4679         calculate D2E/DX2 analytically  !
 ! A174  A(72,74,79)           119.4108         calculate D2E/DX2 analytically  !
 ! A175  A(78,74,79)           121.1213         calculate D2E/DX2 analytically  !
 ! A176  A(73,76,78)           120.6099         calculate D2E/DX2 analytically  !
 ! A177  A(73,76,80)           121.185          calculate D2E/DX2 analytically  !
 ! A178  A(78,76,80)           118.1988         calculate D2E/DX2 analytically  !
 ! A179  A(74,78,76)           119.3648         calculate D2E/DX2 analytically  !
 ! A180  A(74,78,85)           124.9224         calculate D2E/DX2 analytically  !
 ! A181  A(76,78,85)           115.7098         calculate D2E/DX2 analytically  !
 ! A182  A(82,81,83)           109.3258         calculate D2E/DX2 analytically  !
 ! A183  A(82,81,84)           109.3275         calculate D2E/DX2 analytically  !
 ! A184  A(82,81,85)           111.5492         calculate D2E/DX2 analytically  !
 ! A185  A(83,81,84)           109.3252         calculate D2E/DX2 analytically  !
 ! A186  A(83,81,85)           111.5515         calculate D2E/DX2 analytically  !
 ! A187  A(84,81,85)           105.6711         calculate D2E/DX2 analytically  !
 ! A188  A(78,85,81)           117.5242         calculate D2E/DX2 analytically  !
 ! A189  A(24,87,88)           122.3039         calculate D2E/DX2 analytically  !
 ! A190  A(24,87,89)           119.7132         calculate D2E/DX2 analytically  !
 ! A191  A(88,87,89)           117.8788         calculate D2E/DX2 analytically  !
 ! A192  A(87,88,90)           120.9813         calculate D2E/DX2 analytically  !
 ! A193  A(87,88,91)           119.4107         calculate D2E/DX2 analytically  !
 ! A194  A(90,88,91)           119.5724         calculate D2E/DX2 analytically  !
 ! A195  A(87,89,92)           121.1688         calculate D2E/DX2 analytically  !
 ! A196  A(87,89,93)           118.8496         calculate D2E/DX2 analytically  !
 ! A197  A(92,89,93)           119.9793         calculate D2E/DX2 analytically  !
 ! A198  A(88,90,94)           120.3667         calculate D2E/DX2 analytically  !
 ! A199  A(88,90,95)           119.605          calculate D2E/DX2 analytically  !
 ! A200  A(94,90,95)           120.0209         calculate D2E/DX2 analytically  !
 ! A201  A(89,92,94)           120.2283         calculate D2E/DX2 analytically  !
 ! A202  A(89,92,96)           119.7635         calculate D2E/DX2 analytically  !
 ! A203  A(94,92,96)           120.0068         calculate D2E/DX2 analytically  !
 ! A204  A(90,94,92)           119.3572         calculate D2E/DX2 analytically  !
 ! A205  A(90,94,97)           120.3174         calculate D2E/DX2 analytically  !
 ! A206  A(92,94,97)           120.3169         calculate D2E/DX2 analytically  !
 ! A207  L(13,19,24,18,-1)     183.5158         calculate D2E/DX2 analytically  !
 ! A208  L(14,43,26,19,-1)     170.404          calculate D2E/DX2 analytically  !
 ! A209  L(13,19,24,18,-2)     168.8982         calculate D2E/DX2 analytically  !
 ! A210  L(14,43,26,19,-2)     176.25           calculate D2E/DX2 analytically  !
 ! D1    D(5,1,2,3)              1.2533         calculate D2E/DX2 analytically  !
 ! D2    D(5,1,2,8)            179.9843         calculate D2E/DX2 analytically  !
 ! D3    D(7,1,2,3)           -178.6021         calculate D2E/DX2 analytically  !
 ! D4    D(7,1,2,8)              0.1289         calculate D2E/DX2 analytically  !
 ! D5    D(2,1,5,14)            -0.0838         calculate D2E/DX2 analytically  !
 ! D6    D(2,1,5,15)          -178.4311         calculate D2E/DX2 analytically  !
 ! D7    D(7,1,5,14)           179.7759         calculate D2E/DX2 analytically  !
 ! D8    D(7,1,5,15)             1.4286         calculate D2E/DX2 analytically  !
 ! D9    D(1,2,3,4)             -1.6836         calculate D2E/DX2 analytically  !
 ! D10   D(1,2,3,9)            176.6372         calculate D2E/DX2 analytically  !
 ! D11   D(8,2,3,4)            179.5662         calculate D2E/DX2 analytically  !
 ! D12   D(8,2,3,9)             -2.1129         calculate D2E/DX2 analytically  !
 ! D13   D(2,3,4,13)           178.5835         calculate D2E/DX2 analytically  !
 ! D14   D(2,3,4,14)             1.0111         calculate D2E/DX2 analytically  !
 ! D15   D(9,3,4,13)             0.1795         calculate D2E/DX2 analytically  !
 ! D16   D(9,3,4,14)          -177.3929         calculate D2E/DX2 analytically  !
 ! D17   D(2,3,9,6)              3.0014         calculate D2E/DX2 analytically  !
 ! D18   D(2,3,9,11)          -173.3215         calculate D2E/DX2 analytically  !
 ! D19   D(4,3,9,6)           -178.691          calculate D2E/DX2 analytically  !
 ! D20   D(4,3,9,11)             4.986          calculate D2E/DX2 analytically  !
 ! D21   D(3,4,13,10)           -7.2711         calculate D2E/DX2 analytically  !
 ! D22   D(3,4,13,19)          172.9813         calculate D2E/DX2 analytically  !
 ! D23   D(14,4,13,10)         170.3691         calculate D2E/DX2 analytically  !
 ! D24   D(14,4,13,19)          -9.3785         calculate D2E/DX2 analytically  !
 ! D25   D(3,4,14,5)             0.1206         calculate D2E/DX2 analytically  !
 ! D26   D(3,4,14,43)          174.9479         calculate D2E/DX2 analytically  !
 ! D27   D(13,4,14,5)         -177.5061         calculate D2E/DX2 analytically  !
 ! D28   D(13,4,14,43)          -2.6788         calculate D2E/DX2 analytically  !
 ! D29   D(1,5,14,4)            -0.6036         calculate D2E/DX2 analytically  !
 ! D30   D(1,5,14,43)         -175.0076         calculate D2E/DX2 analytically  !
 ! D31   D(15,5,14,4)          177.7949         calculate D2E/DX2 analytically  !
 ! D32   D(15,5,14,43)           3.391          calculate D2E/DX2 analytically  !
 ! D33   D(1,5,15,17)         -154.5714         calculate D2E/DX2 analytically  !
 ! D34   D(1,5,15,41)           26.8144         calculate D2E/DX2 analytically  !
 ! D35   D(14,5,15,17)          27.0022         calculate D2E/DX2 analytically  !
 ! D36   D(14,5,15,41)        -151.612          calculate D2E/DX2 analytically  !
 ! D37   D(3,9,11,10)           -2.8955         calculate D2E/DX2 analytically  !
 ! D38   D(3,9,11,12)          174.8273         calculate D2E/DX2 analytically  !
 ! D39   D(6,9,11,10)         -179.1403         calculate D2E/DX2 analytically  !
 ! D40   D(6,9,11,12)           -1.4174         calculate D2E/DX2 analytically  !
 ! D41   D(13,10,11,9)          -4.5361         calculate D2E/DX2 analytically  !
 ! D42   D(13,10,11,12)        177.6731         calculate D2E/DX2 analytically  !
 ! D43   D(16,10,11,9)         168.0118         calculate D2E/DX2 analytically  !
 ! D44   D(16,10,11,12)         -9.779          calculate D2E/DX2 analytically  !
 ! D45   D(11,10,13,4)           9.6821         calculate D2E/DX2 analytically  !
 ! D46   D(11,10,13,19)       -170.5277         calculate D2E/DX2 analytically  !
 ! D47   D(16,10,13,4)        -163.836          calculate D2E/DX2 analytically  !
 ! D48   D(16,10,13,19)         15.9541         calculate D2E/DX2 analytically  !
 ! D49   D(11,10,16,18)       -169.1403         calculate D2E/DX2 analytically  !
 ! D50   D(11,10,16,42)          7.026          calculate D2E/DX2 analytically  !
 ! D51   D(13,10,16,18)          4.1368         calculate D2E/DX2 analytically  !
 ! D52   D(13,10,16,42)       -179.6968         calculate D2E/DX2 analytically  !
 ! D53   D(4,13,19,18)         158.1582         calculate D2E/DX2 analytically  !
 ! D54   D(4,13,19,20)         -34.8162         calculate D2E/DX2 analytically  !
 ! D55   D(4,13,19,22)          41.9021         calculate D2E/DX2 analytically  !
 ! D56   D(4,13,19,43)          12.4634         calculate D2E/DX2 analytically  !
 ! D57   D(10,13,19,18)        -21.6031         calculate D2E/DX2 analytically  !
 ! D58   D(10,13,19,20)        145.4225         calculate D2E/DX2 analytically  !
 ! D59   D(10,13,19,22)       -137.8593         calculate D2E/DX2 analytically  !
 ! D60   D(10,13,19,43)       -167.2979         calculate D2E/DX2 analytically  !
 ! D61   D(4,13,24,25)         -58.6214         calculate D2E/DX2 analytically  !
 ! D62   D(4,13,24,87)        -179.4471         calculate D2E/DX2 analytically  !
 ! D63   D(10,13,24,25)        114.404          calculate D2E/DX2 analytically  !
 ! D64   D(10,13,24,87)         -6.4217         calculate D2E/DX2 analytically  !
 ! D65   D(4,14,43,19)           8.8462         calculate D2E/DX2 analytically  !
 ! D66   D(4,14,43,20)          57.7832         calculate D2E/DX2 analytically  !
 ! D67   D(4,14,43,28)          99.4421         calculate D2E/DX2 analytically  !
 ! D68   D(4,14,43,44)        -105.1701         calculate D2E/DX2 analytically  !
 ! D69   D(5,14,43,19)        -176.5785         calculate D2E/DX2 analytically  !
 ! D70   D(5,14,43,20)        -127.6415         calculate D2E/DX2 analytically  !
 ! D71   D(5,14,43,28)         -85.9826         calculate D2E/DX2 analytically  !
 ! D72   D(5,14,43,44)          69.4052         calculate D2E/DX2 analytically  !
 ! D73   D(5,15,17,37)        -174.7285         calculate D2E/DX2 analytically  !
 ! D74   D(41,15,17,37)          3.829          calculate D2E/DX2 analytically  !
 ! D75   D(5,15,41,34)         178.0011         calculate D2E/DX2 analytically  !
 ! D76   D(17,15,41,34)         -0.7287         calculate D2E/DX2 analytically  !
 ! D77   D(10,16,18,19)        -21.083          calculate D2E/DX2 analytically  !
 ! D78   D(10,16,18,39)        166.5338         calculate D2E/DX2 analytically  !
 ! D79   D(42,16,18,19)        162.5643         calculate D2E/DX2 analytically  !
 ! D80   D(42,16,18,39)         -9.8188         calculate D2E/DX2 analytically  !
 ! D81   D(10,16,42,31)        176.5421         calculate D2E/DX2 analytically  !
 ! D82   D(18,16,42,31)         -7.1951         calculate D2E/DX2 analytically  !
 ! D83   D(15,17,37,34)         -4.9505         calculate D2E/DX2 analytically  !
 ! D84   D(15,17,37,38)        111.2484         calculate D2E/DX2 analytically  !
 ! D85   D(15,17,37,45)       -130.9338         calculate D2E/DX2 analytically  !
 ! D86   D(16,18,19,13)         22.6998         calculate D2E/DX2 analytically  !
 ! D87   D(16,18,19,20)        -25.3664         calculate D2E/DX2 analytically  !
 ! D88   D(16,18,19,22)        173.4894         calculate D2E/DX2 analytically  !
 ! D89   D(16,18,19,24)       -146.1984         calculate D2E/DX2 analytically  !
 ! D90   D(16,18,19,43)         87.0632         calculate D2E/DX2 analytically  !
 ! D91   D(39,18,19,13)       -170.2751         calculate D2E/DX2 analytically  !
 ! D92   D(39,18,19,20)        141.6587         calculate D2E/DX2 analytically  !
 ! D93   D(39,18,19,22)        -19.4855         calculate D2E/DX2 analytically  !
 ! D94   D(39,18,19,24)         20.8267         calculate D2E/DX2 analytically  !
 ! D95   D(39,18,19,43)       -105.9117         calculate D2E/DX2 analytically  !
 ! D96   D(16,18,39,31)         21.1767         calculate D2E/DX2 analytically  !
 ! D97   D(16,18,39,40)        138.2677         calculate D2E/DX2 analytically  !
 ! D98   D(16,18,39,58)       -101.0897         calculate D2E/DX2 analytically  !
 ! D99   D(19,18,39,31)       -145.9635         calculate D2E/DX2 analytically  !
 ! D100  D(19,18,39,40)        -28.8725         calculate D2E/DX2 analytically  !
 ! D101  D(19,18,39,58)         91.77           calculate D2E/DX2 analytically  !
 ! D102  D(13,19,20,21)        -75.2751         calculate D2E/DX2 analytically  !
 ! D103  D(18,19,20,21)        -27.6195         calculate D2E/DX2 analytically  !
 ! D104  D(22,19,20,21)        134.6543         calculate D2E/DX2 analytically  !
 ! D105  D(24,19,20,21)         94.9468         calculate D2E/DX2 analytically  !
 ! D106  D(13,19,22,23)         78.9784         calculate D2E/DX2 analytically  !
 ! D107  D(13,19,22,26)        -44.2759         calculate D2E/DX2 analytically  !
 ! D108  D(18,19,22,23)        -30.1385         calculate D2E/DX2 analytically  !
 ! D109  D(18,19,22,26)       -153.3928         calculate D2E/DX2 analytically  !
 ! D110  D(20,19,22,23)        155.4533         calculate D2E/DX2 analytically  !
 ! D111  D(20,19,22,26)         32.199          calculate D2E/DX2 analytically  !
 ! D112  D(43,19,22,23)        109.5895         calculate D2E/DX2 analytically  !
 ! D113  D(43,19,22,26)        -13.6648         calculate D2E/DX2 analytically  !
 ! D114  D(18,19,24,25)        136.9817         calculate D2E/DX2 analytically  !
 ! D115  D(18,19,24,87)         12.5414         calculate D2E/DX2 analytically  !
 ! D116  D(20,19,24,25)        -28.0292         calculate D2E/DX2 analytically  !
 ! D117  D(20,19,24,87)       -152.4695         calculate D2E/DX2 analytically  !
 ! D118  D(43,19,24,25)        -73.4003         calculate D2E/DX2 analytically  !
 ! D119  D(43,19,24,87)        162.1594         calculate D2E/DX2 analytically  !
 ! D120  D(13,19,43,14)         -9.059          calculate D2E/DX2 analytically  !
 ! D121  D(13,19,43,26)        174.6909         calculate D2E/DX2 analytically  !
 ! D122  D(13,19,43,28)       -144.8197         calculate D2E/DX2 analytically  !
 ! D123  D(13,19,43,44)         86.6915         calculate D2E/DX2 analytically  !
 ! D124  D(18,19,43,14)        -73.8788         calculate D2E/DX2 analytically  !
 ! D125  D(18,19,43,26)        109.8712         calculate D2E/DX2 analytically  !
 ! D126  D(18,19,43,28)        150.3606         calculate D2E/DX2 analytically  !
 ! D127  D(18,19,43,44)         21.8718         calculate D2E/DX2 analytically  !
 ! D128  D(22,19,43,14)       -173.7513         calculate D2E/DX2 analytically  !
 ! D129  D(22,19,43,26)          9.9987         calculate D2E/DX2 analytically  !
 ! D130  D(22,19,43,28)         50.488          calculate D2E/DX2 analytically  !
 ! D131  D(22,19,43,44)        -78.0007         calculate D2E/DX2 analytically  !
 ! D132  D(24,19,43,14)        159.6198         calculate D2E/DX2 analytically  !
 ! D133  D(24,19,43,26)        -16.6302         calculate D2E/DX2 analytically  !
 ! D134  D(24,19,43,28)         23.8591         calculate D2E/DX2 analytically  !
 ! D135  D(24,19,43,44)       -104.6296         calculate D2E/DX2 analytically  !
 ! D136  D(19,20,21,30)          6.8006         calculate D2E/DX2 analytically  !
 ! D137  D(19,20,21,71)       -169.6046         calculate D2E/DX2 analytically  !
 ! D138  D(43,20,21,30)       -125.7473         calculate D2E/DX2 analytically  !
 ! D139  D(43,20,21,71)         57.8475         calculate D2E/DX2 analytically  !
 ! D140  D(21,20,43,14)         43.4364         calculate D2E/DX2 analytically  !
 ! D141  D(21,20,43,26)       -141.4136         calculate D2E/DX2 analytically  !
 ! D142  D(21,20,43,28)       -104.4128         calculate D2E/DX2 analytically  !
 ! D143  D(21,20,43,44)        138.8918         calculate D2E/DX2 analytically  !
 ! D144  D(20,21,71,72)        160.1245         calculate D2E/DX2 analytically  !
 ! D145  D(20,21,71,73)        -20.9211         calculate D2E/DX2 analytically  !
 ! D146  D(30,21,71,72)        -16.3241         calculate D2E/DX2 analytically  !
 ! D147  D(30,21,71,73)        162.6303         calculate D2E/DX2 analytically  !
 ! D148  D(23,22,24,25)       -165.445          calculate D2E/DX2 analytically  !
 ! D149  D(23,22,24,87)        -13.6669         calculate D2E/DX2 analytically  !
 ! D150  D(26,22,24,25)          3.8224         calculate D2E/DX2 analytically  !
 ! D151  D(26,22,24,87)        155.6006         calculate D2E/DX2 analytically  !
 ! D152  D(19,22,26,27)        133.2792         calculate D2E/DX2 analytically  !
 ! D153  D(19,22,26,28)        -60.7531         calculate D2E/DX2 analytically  !
 ! D154  D(19,22,26,43)         17.0884         calculate D2E/DX2 analytically  !
 ! D155  D(23,22,26,27)         14.8558         calculate D2E/DX2 analytically  !
 ! D156  D(23,22,26,28)       -179.1766         calculate D2E/DX2 analytically  !
 ! D157  D(23,22,26,43)       -101.335          calculate D2E/DX2 analytically  !
 ! D158  D(24,22,26,27)       -154.6547         calculate D2E/DX2 analytically  !
 ! D159  D(24,22,26,28)         11.313          calculate D2E/DX2 analytically  !
 ! D160  D(24,22,26,43)         89.1545         calculate D2E/DX2 analytically  !
 ! D161  D(19,24,87,88)       -109.1615         calculate D2E/DX2 analytically  !
 ! D162  D(19,24,87,89)         74.6287         calculate D2E/DX2 analytically  !
 ! D163  D(22,24,87,88)        -21.3382         calculate D2E/DX2 analytically  !
 ! D164  D(22,24,87,89)        162.452          calculate D2E/DX2 analytically  !
 ! D165  D(25,24,87,88)        131.6754         calculate D2E/DX2 analytically  !
 ! D166  D(25,24,87,89)        -44.5344         calculate D2E/DX2 analytically  !
 ! D167  D(22,26,28,29)        -38.5392         calculate D2E/DX2 analytically  !
 ! D168  D(22,26,28,86)       -179.183          calculate D2E/DX2 analytically  !
 ! D169  D(27,26,28,29)        126.9014         calculate D2E/DX2 analytically  !
 ! D170  D(27,26,28,86)        -13.7423         calculate D2E/DX2 analytically  !
 ! D171  D(22,26,43,19)        -14.325          calculate D2E/DX2 analytically  !
 ! D172  D(22,26,43,20)        -64.0003         calculate D2E/DX2 analytically  !
 ! D173  D(22,26,43,44)         99.1644         calculate D2E/DX2 analytically  !
 ! D174  D(27,26,43,19)       -139.1735         calculate D2E/DX2 analytically  !
 ! D175  D(27,26,43,20)        171.1512         calculate D2E/DX2 analytically  !
 ! D176  D(27,26,43,44)        -25.6841         calculate D2E/DX2 analytically  !
 ! D177  D(29,28,43,14)        -56.1936         calculate D2E/DX2 analytically  !
 ! D178  D(29,28,43,19)         36.7382         calculate D2E/DX2 analytically  !
 ! D179  D(29,28,43,20)         -6.4956         calculate D2E/DX2 analytically  !
 ! D180  D(29,28,43,44)        154.6224         calculate D2E/DX2 analytically  !
 ! D181  D(86,28,43,14)         77.8367         calculate D2E/DX2 analytically  !
 ! D182  D(86,28,43,19)        170.7686         calculate D2E/DX2 analytically  !
 ! D183  D(86,28,43,20)        127.5348         calculate D2E/DX2 analytically  !
 ! D184  D(86,28,43,44)        -71.3472         calculate D2E/DX2 analytically  !
 ! D185  D(32,31,39,18)         91.1268         calculate D2E/DX2 analytically  !
 ! D186  D(32,31,39,40)        -25.2442         calculate D2E/DX2 analytically  !
 ! D187  D(32,31,39,58)       -147.5879         calculate D2E/DX2 analytically  !
 ! D188  D(33,31,39,18)       -142.2171         calculate D2E/DX2 analytically  !
 ! D189  D(33,31,39,40)        101.4119         calculate D2E/DX2 analytically  !
 ! D190  D(33,31,39,58)        -20.9318         calculate D2E/DX2 analytically  !
 ! D191  D(42,31,39,18)        -25.0616         calculate D2E/DX2 analytically  !
 ! D192  D(42,31,39,40)       -141.4326         calculate D2E/DX2 analytically  !
 ! D193  D(42,31,39,58)         96.2236         calculate D2E/DX2 analytically  !
 ! D194  D(32,31,42,16)        -99.2586         calculate D2E/DX2 analytically  !
 ! D195  D(33,31,42,16)        142.6525         calculate D2E/DX2 analytically  !
 ! D196  D(39,31,42,16)         20.156          calculate D2E/DX2 analytically  !
 ! D197  D(35,34,37,17)        121.2974         calculate D2E/DX2 analytically  !
 ! D198  D(35,34,37,38)          7.3966         calculate D2E/DX2 analytically  !
 ! D199  D(35,34,37,45)       -113.5632         calculate D2E/DX2 analytically  !
 ! D200  D(36,34,37,17)       -112.7089         calculate D2E/DX2 analytically  !
 ! D201  D(36,34,37,38)        133.3903         calculate D2E/DX2 analytically  !
 ! D202  D(36,34,37,45)         12.4306         calculate D2E/DX2 analytically  !
 ! D203  D(41,34,37,17)          4.5119         calculate D2E/DX2 analytically  !
 ! D204  D(41,34,37,38)       -109.3889         calculate D2E/DX2 analytically  !
 ! D205  D(41,34,37,45)        129.6513         calculate D2E/DX2 analytically  !
 ! D206  D(35,34,41,15)       -123.4733         calculate D2E/DX2 analytically  !
 ! D207  D(36,34,41,15)        118.814          calculate D2E/DX2 analytically  !
 ! D208  D(37,34,41,15)         -2.5469         calculate D2E/DX2 analytically  !
 ! D209  D(17,37,45,46)         59.1428         calculate D2E/DX2 analytically  !
 ! D210  D(17,37,45,50)       -179.6909         calculate D2E/DX2 analytically  !
 ! D211  D(17,37,45,54)        -61.4422         calculate D2E/DX2 analytically  !
 ! D212  D(34,37,45,46)        -60.8524         calculate D2E/DX2 analytically  !
 ! D213  D(34,37,45,50)         60.3139         calculate D2E/DX2 analytically  !
 ! D214  D(34,37,45,54)        178.5625         calculate D2E/DX2 analytically  !
 ! D215  D(38,37,45,46)        176.6841         calculate D2E/DX2 analytically  !
 ! D216  D(38,37,45,50)        -62.1496         calculate D2E/DX2 analytically  !
 ! D217  D(38,37,45,54)         56.0991         calculate D2E/DX2 analytically  !
 ! D218  D(18,39,58,59)         62.9047         calculate D2E/DX2 analytically  !
 ! D219  D(18,39,58,63)        -57.6058         calculate D2E/DX2 analytically  !
 ! D220  D(18,39,58,67)       -176.0821         calculate D2E/DX2 analytically  !
 ! D221  D(31,39,58,59)        -51.9772         calculate D2E/DX2 analytically  !
 ! D222  D(31,39,58,63)       -172.4877         calculate D2E/DX2 analytically  !
 ! D223  D(31,39,58,67)         69.036          calculate D2E/DX2 analytically  !
 ! D224  D(40,39,58,59)       -175.6362         calculate D2E/DX2 analytically  !
 ! D225  D(40,39,58,63)         63.8533         calculate D2E/DX2 analytically  !
 ! D226  D(40,39,58,67)        -54.623          calculate D2E/DX2 analytically  !
 ! D227  D(37,45,46,47)        -57.063          calculate D2E/DX2 analytically  !
 ! D228  D(37,45,46,48)         63.7006         calculate D2E/DX2 analytically  !
 ! D229  D(37,45,46,49)       -176.92           calculate D2E/DX2 analytically  !
 ! D230  D(50,45,46,47)       -177.2512         calculate D2E/DX2 analytically  !
 ! D231  D(50,45,46,48)        -56.4876         calculate D2E/DX2 analytically  !
 ! D232  D(50,45,46,49)         62.8918         calculate D2E/DX2 analytically  !
 ! D233  D(54,45,46,47)         63.3008         calculate D2E/DX2 analytically  !
 ! D234  D(54,45,46,48)       -175.9357         calculate D2E/DX2 analytically  !
 ! D235  D(54,45,46,49)        -56.5562         calculate D2E/DX2 analytically  !
 ! D236  D(37,45,50,51)         57.8327         calculate D2E/DX2 analytically  !
 ! D237  D(37,45,50,52)        177.3104         calculate D2E/DX2 analytically  !
 ! D238  D(37,45,50,53)        -63.162          calculate D2E/DX2 analytically  !
 ! D239  D(46,45,50,51)        179.7084         calculate D2E/DX2 analytically  !
 ! D240  D(46,45,50,52)        -60.8139         calculate D2E/DX2 analytically  !
 ! D241  D(46,45,50,53)         58.7137         calculate D2E/DX2 analytically  !
 ! D242  D(54,45,50,51)        -60.5179         calculate D2E/DX2 analytically  !
 ! D243  D(54,45,50,52)         58.9598         calculate D2E/DX2 analytically  !
 ! D244  D(54,45,50,53)        178.4874         calculate D2E/DX2 analytically  !
 ! D245  D(37,45,54,55)         64.2169         calculate D2E/DX2 analytically  !
 ! D246  D(37,45,54,56)       -176.0033         calculate D2E/DX2 analytically  !
 ! D247  D(37,45,54,57)        -56.2498         calculate D2E/DX2 analytically  !
 ! D248  D(46,45,54,55)        -57.5318         calculate D2E/DX2 analytically  !
 ! D249  D(46,45,54,56)         62.2481         calculate D2E/DX2 analytically  !
 ! D250  D(46,45,54,57)       -177.9985         calculate D2E/DX2 analytically  !
 ! D251  D(50,45,54,55)       -177.7708         calculate D2E/DX2 analytically  !
 ! D252  D(50,45,54,56)        -57.991          calculate D2E/DX2 analytically  !
 ! D253  D(50,45,54,57)         61.7624         calculate D2E/DX2 analytically  !
 ! D254  D(39,58,59,60)        -61.2191         calculate D2E/DX2 analytically  !
 ! D255  D(39,58,59,61)         60.6097         calculate D2E/DX2 analytically  !
 ! D256  D(39,58,59,62)       -179.7872         calculate D2E/DX2 analytically  !
 ! D257  D(63,58,59,60)         59.974          calculate D2E/DX2 analytically  !
 ! D258  D(63,58,59,61)       -178.1973         calculate D2E/DX2 analytically  !
 ! D259  D(63,58,59,62)        -58.5942         calculate D2E/DX2 analytically  !
 ! D260  D(67,58,59,60)        178.958          calculate D2E/DX2 analytically  !
 ! D261  D(67,58,59,61)        -59.2133         calculate D2E/DX2 analytically  !
 ! D262  D(67,58,59,62)         60.3898         calculate D2E/DX2 analytically  !
 ! D263  D(39,58,63,64)        -58.7348         calculate D2E/DX2 analytically  !
 ! D264  D(39,58,63,65)         62.6521         calculate D2E/DX2 analytically  !
 ! D265  D(39,58,63,66)       -177.9726         calculate D2E/DX2 analytically  !
 ! D266  D(59,58,63,64)        178.7845         calculate D2E/DX2 analytically  !
 ! D267  D(59,58,63,65)        -59.8286         calculate D2E/DX2 analytically  !
 ! D268  D(59,58,63,66)         59.5467         calculate D2E/DX2 analytically  !
 ! D269  D(67,58,63,64)         59.1347         calculate D2E/DX2 analytically  !
 ! D270  D(67,58,63,65)       -179.4784         calculate D2E/DX2 analytically  !
 ! D271  D(67,58,63,66)        -60.1031         calculate D2E/DX2 analytically  !
 ! D272  D(39,58,67,68)         57.6038         calculate D2E/DX2 analytically  !
 ! D273  D(39,58,67,69)        177.0448         calculate D2E/DX2 analytically  !
 ! D274  D(39,58,67,70)        -63.5816         calculate D2E/DX2 analytically  !
 ! D275  D(59,58,67,68)        179.7951         calculate D2E/DX2 analytically  !
 ! D276  D(59,58,67,69)        -60.7639         calculate D2E/DX2 analytically  !
 ! D277  D(59,58,67,70)         58.6096         calculate D2E/DX2 analytically  !
 ! D278  D(63,58,67,68)        -61.4177         calculate D2E/DX2 analytically  !
 ! D279  D(63,58,67,69)         58.0232         calculate D2E/DX2 analytically  !
 ! D280  D(63,58,67,70)        177.3968         calculate D2E/DX2 analytically  !
 ! D281  D(21,71,72,74)       -179.5947         calculate D2E/DX2 analytically  !
 ! D282  D(21,71,72,75)          0.0651         calculate D2E/DX2 analytically  !
 ! D283  D(73,71,72,74)          1.3918         calculate D2E/DX2 analytically  !
 ! D284  D(73,71,72,75)       -178.9484         calculate D2E/DX2 analytically  !
 ! D285  D(21,71,73,76)        179.6895         calculate D2E/DX2 analytically  !
 ! D286  D(21,71,73,77)         -3.206          calculate D2E/DX2 analytically  !
 ! D287  D(72,71,73,76)         -1.3341         calculate D2E/DX2 analytically  !
 ! D288  D(72,71,73,77)        175.7704         calculate D2E/DX2 analytically  !
 ! D289  D(71,72,74,78)         -0.3418         calculate D2E/DX2 analytically  !
 ! D290  D(71,72,74,79)        179.7416         calculate D2E/DX2 analytically  !
 ! D291  D(75,72,74,78)        179.9981         calculate D2E/DX2 analytically  !
 ! D292  D(75,72,74,79)          0.0815         calculate D2E/DX2 analytically  !
 ! D293  D(71,73,76,78)          0.2411         calculate D2E/DX2 analytically  !
 ! D294  D(71,73,76,80)        179.3153         calculate D2E/DX2 analytically  !
 ! D295  D(77,73,76,78)       -176.8467         calculate D2E/DX2 analytically  !
 ! D296  D(77,73,76,80)          2.2275         calculate D2E/DX2 analytically  !
 ! D297  D(72,74,78,76)         -0.8005         calculate D2E/DX2 analytically  !
 ! D298  D(72,74,78,85)        179.8611         calculate D2E/DX2 analytically  !
 ! D299  D(79,74,78,76)        179.1147         calculate D2E/DX2 analytically  !
 ! D300  D(79,74,78,85)         -0.2237         calculate D2E/DX2 analytically  !
 ! D301  D(73,76,78,74)          0.8526         calculate D2E/DX2 analytically  !
 ! D302  D(73,76,78,85)       -179.7495         calculate D2E/DX2 analytically  !
 ! D303  D(80,76,78,74)       -178.2487         calculate D2E/DX2 analytically  !
 ! D304  D(80,76,78,85)          1.1492         calculate D2E/DX2 analytically  !
 ! D305  D(74,78,85,81)         -0.0434         calculate D2E/DX2 analytically  !
 ! D306  D(76,78,85,81)       -179.4035         calculate D2E/DX2 analytically  !
 ! D307  D(82,81,85,78)        -61.233          calculate D2E/DX2 analytically  !
 ! D308  D(83,81,85,78)         61.35           calculate D2E/DX2 analytically  !
 ! D309  D(84,81,85,78)       -179.9423         calculate D2E/DX2 analytically  !
 ! D310  D(24,87,88,90)       -177.6077         calculate D2E/DX2 analytically  !
 ! D311  D(24,87,88,91)          0.2134         calculate D2E/DX2 analytically  !
 ! D312  D(89,87,88,90)         -1.3317         calculate D2E/DX2 analytically  !
 ! D313  D(89,87,88,91)        176.4894         calculate D2E/DX2 analytically  !
 ! D314  D(24,87,89,92)        177.8457         calculate D2E/DX2 analytically  !
 ! D315  D(24,87,89,93)         -2.7087         calculate D2E/DX2 analytically  !
 ! D316  D(88,87,89,92)          1.4697         calculate D2E/DX2 analytically  !
 ! D317  D(88,87,89,93)       -179.0847         calculate D2E/DX2 analytically  !
 ! D318  D(87,88,90,94)          0.2418         calculate D2E/DX2 analytically  !
 ! D319  D(87,88,90,95)        179.2543         calculate D2E/DX2 analytically  !
 ! D320  D(91,88,90,94)       -177.5759         calculate D2E/DX2 analytically  !
 ! D321  D(91,88,90,95)          1.4366         calculate D2E/DX2 analytically  !
 ! D322  D(87,89,92,94)         -0.5148         calculate D2E/DX2 analytically  !
 ! D323  D(87,89,92,96)        179.909          calculate D2E/DX2 analytically  !
 ! D324  D(93,89,92,94)       -179.9542         calculate D2E/DX2 analytically  !
 ! D325  D(93,89,92,96)          0.4696         calculate D2E/DX2 analytically  !
 ! D326  D(88,90,94,92)          0.7497         calculate D2E/DX2 analytically  !
 ! D327  D(88,90,94,97)        179.6914         calculate D2E/DX2 analytically  !
 ! D328  D(95,90,94,92)       -178.2587         calculate D2E/DX2 analytically  !
 ! D329  D(95,90,94,97)          0.683          calculate D2E/DX2 analytically  !
 ! D330  D(89,92,94,90)         -0.6147         calculate D2E/DX2 analytically  !
 ! D331  D(89,92,94,97)       -179.5564         calculate D2E/DX2 analytically  !
 ! D332  D(96,92,94,90)        178.9606         calculate D2E/DX2 analytically  !
 ! D333  D(96,92,94,97)          0.0188         calculate D2E/DX2 analytically  !
 --------------------------------------------------------------------------------
 Trust Radius=3.00D-01 FncErr=5.00D-06 GrdErr=5.00D-06 EigMax=2.50D+02 EigMin=1.00D-04
 Number of steps in this run=    582 maximum allowed number of steps=    582.
 Search for a saddle point of order  1.
 GradGradGradGradGradGradGradGradGradGradGradGradGradGradGradGradGradGrad

 Stoichiometry    C41H46ClN4Ni2O3(2)
 Framework group  C1[X(C41H46ClN4Ni2O3)]
 Deg. of freedom   285
 Full point group                 C1      NOp   1
 Largest Abelian subgroup         C1      NOp   1
 Largest concise Abelian subgroup C1      NOp   1
                         Standard orientation:                         
 ---------------------------------------------------------------------
 Center     Atomic      Atomic             Coordinates (Angstroms)
 Number     Number       Type             X           Y           Z
 ---------------------------------------------------------------------
      1          6           0        2.385860   -2.695794    2.626367
      2          6           0        1.419792   -2.536761    3.617432
      3          6           0        0.210836   -1.872370    3.324778
      4          6           0        0.038159   -1.342638    1.992600
      5          6           0        2.151229   -2.166322    1.351378
      6          1           0       -0.726052   -2.108134    5.279761
      7          1           0        3.320566   -3.223683    2.814022
      8          1           0        1.577398   -2.940335    4.620906
      9          6           0       -0.858081   -1.728963    4.263943
     10          6           0       -2.189698   -0.727713    2.532559
     11          6           0       -2.063654   -1.185066    3.853961
     12          1           0       -2.929697   -1.134691    4.516384
     13          7           0       -1.125696   -0.712415    1.638816
     14          7           0        1.003035   -1.497746    1.042379
     15          6           0        3.136727   -2.347334    0.273792
     16          6           0       -3.413508   -0.369193    1.885597
     17          7           0        3.302087   -1.587573   -0.752783
     18          7           0       -3.436167   -0.157820    0.579452
     19         28           0       -1.567959    0.251440   -0.002461
     20          6           0        0.265494    0.813157   -0.003158
     21          6           0        0.687018    1.771935    0.858057
     22          6           0       -1.485096    0.381144   -2.112318
     23          1           0       -2.246371   -0.282167   -2.534398
     24          6           0       -1.907818    1.598667   -1.521443
     25          1           0       -1.143836    2.358126   -1.325228
     26          6           0       -0.098337    0.025821   -2.409003
     27          1           0        0.085225   -0.695324   -3.206836
     28          6           0        0.963928    0.845127   -1.870441
     29          1           0        0.853180    1.932866   -1.822578
     30          1           0       -0.048794    2.101113    1.607294
     31          6           0       -5.551372    0.173540    1.542138
     32          1           0       -5.687168    1.255988    1.700501
     33          1           0       -6.499115   -0.350476    1.719310
     34          6           0        4.777464   -3.479250   -0.775231
     35          1           0        4.620091   -4.439108   -1.286343
     36          1           0        5.821539   -3.416317   -0.429160
     37          6           0        4.315923   -2.246548   -1.609971
     38          1           0        3.787846   -2.585594   -2.521837
     39          6           0       -4.871539   -0.139979    0.190840
     40          1           0       -5.050157    0.670353   -0.531254
     41          8           0        3.918216   -3.465870    0.403980
     42          8           0       -4.594465   -0.306135    2.549208
     43         28           0        0.559223   -0.860340   -0.751929
     44         17           0        0.255876   -2.914882   -1.568397
     45          6           0        5.462360   -1.294384   -2.070724
     46          6           0        6.212680   -0.698439   -0.862673
     47          1           0        5.519104   -0.162669   -0.196005
     48          1           0        6.726850   -1.470498   -0.266339
     49          1           0        6.982101    0.013194   -1.204873
     50          6           0        6.438743   -2.099308   -2.956997
     51          1           0        5.919060   -2.538798   -3.825410
     52          1           0        7.237837   -1.443734   -3.340495
     53          1           0        6.925353   -2.918299   -2.401038
     54          6           0        4.856837   -0.150924   -2.910261
     55          1           0        4.183682    0.472112   -2.302863
     56          1           0        5.653605    0.498776   -3.309363
     57          1           0        4.281811   -0.545835   -3.764771
     58          6           0       -5.337595   -1.492514   -0.460878
     59          6           0       -5.223502   -2.674451    0.525650
     60          1           0       -4.180826   -2.826605    0.845661
     61          1           0       -5.845938   -2.537826    1.424720
     62          1           0       -5.554663   -3.602965    0.032464
     63          6           0       -4.470141   -1.800302   -1.697294
     64          1           0       -4.539179   -0.989200   -2.440529
     65          1           0       -3.414739   -1.938765   -1.418218
     66          1           0       -4.814688   -2.729072   -2.180854
     67          6           0       -6.805836   -1.321624   -0.910552
     68          1           0       -6.911340   -0.478882   -1.614265
     69          1           0       -7.153486   -2.234209   -1.421572
     70          1           0       -7.488103   -1.143950   -0.062224
     71          6           0        1.958291    2.493850    0.902924
     72          6           0        2.039472    3.720218    1.597795
     73          6           0        3.144245    2.011207    0.292899
     74          6           0        3.226485    4.458370    1.667224
     75          1           0        1.144568    4.109351    2.093624
     76          6           0        4.330235    2.734868    0.355415
     77          1           0        3.132134    1.031453   -0.192892
     78          6           0        4.383062    3.969434    1.034565
     79          1           0        3.238769    5.403230    2.212852
     80          1           0        5.247054    2.359087   -0.104478
     81          6           0        5.702398    5.848999    1.717575
     82          1           0        5.025164    6.607227    1.284268
     83          1           0        5.484399    5.737059    2.795213
     84          1           0        6.742396    6.175235    1.589387
     85          8           0        5.601748    4.600293    1.028978
     86          1           0        1.986265    0.551015   -2.128802
     87          6           0       -3.259549    2.183248   -1.680274
     88          6           0       -4.107740    1.841523   -2.755949
     89          6           0       -3.703619    3.176738   -0.778238
     90          6           0       -5.361430    2.448370   -2.906712
     91          1           0       -3.765313    1.118802   -3.500721
     92          6           0       -4.955337    3.780731   -0.926167
     93          1           0       -3.052431    3.464666    0.052405
     94          6           0       -5.795562    3.414537   -1.989580
     95          1           0       -5.995067    2.175647   -3.755108
     96          1           0       -5.276438    4.545914   -0.213969
     97          1           0       -6.771614    3.891076   -2.110801
 ---------------------------------------------------------------------
 Rotational constants (GHZ):           0.0763204           0.0395029           0.0351884
 General basis read from cards:  (5D, 7F)
 ======================================================================================================
                                       Pseudopotential Parameters
 ======================================================================================================
  Center     Atomic      Valence      Angular      Power
  Number     Number     Electrons     Momentum     of R      Exponent        Coefficient   SO-Coeffient
 ======================================================================================================
    1          6
                                   No pseudopotential on this center.
    2          6
                                   No pseudopotential on this center.
    3          6
                                   No pseudopotential on this center.
    4          6
                                   No pseudopotential on this center.
    5          6
                                   No pseudopotential on this center.
    6          1
                                   No pseudopotential on this center.
    7          1
                                   No pseudopotential on this center.
    8          1
                                   No pseudopotential on this center.
    9          6
                                   No pseudopotential on this center.
   10          6
                                   No pseudopotential on this center.
   11          6
                                   No pseudopotential on this center.
   12          1
                                   No pseudopotential on this center.
   13          7
                                   No pseudopotential on this center.
   14          7
                                   No pseudopotential on this center.
   15          6
                                   No pseudopotential on this center.
   16          6
                                   No pseudopotential on this center.
   17          7
                                   No pseudopotential on this center.
   18          7
                                   No pseudopotential on this center.
   19         28           18
                                      D and up 
                                                     1      469.9324331      -10.00000000    0.00000000
                                                     2       85.4236411      -69.40848050    0.00000000
                                                     2       21.2674984      -12.09510200    0.00000000
                                      S - D
                                                     0      162.1686097        3.00000000    0.00000000
                                                     1      176.5333232       22.02536180    0.00000000
                                                     2       68.9562010      443.01810880    0.00000000
                                                     2       13.5792838      145.56964110    0.00000000
                                      P - D
                                                     0       69.0181506        5.00000000    0.00000000
                                                     1      275.5955596        4.98828240    0.00000000
                                                     2       47.1315453      256.69458530    0.00000000
                                                     2       12.9874075       78.47544500    0.00000000
   20          6
                                   No pseudopotential on this center.
   21          6
                                   No pseudopotential on this center.
   22          6
                                   No pseudopotential on this center.
   23          1
                                   No pseudopotential on this center.
   24          6
                                   No pseudopotential on this center.
   25          1
                                   No pseudopotential on this center.
   26          6
                                   No pseudopotential on this center.
   27          1
                                   No pseudopotential on this center.
   28          6
                                   No pseudopotential on this center.
   29          1
                                   No pseudopotential on this center.
   30          1
                                   No pseudopotential on this center.
   31          6
                                   No pseudopotential on this center.
   32          1
                                   No pseudopotential on this center.
   33          1
                                   No pseudopotential on this center.
   34          6
                                   No pseudopotential on this center.
   35          1
                                   No pseudopotential on this center.
   36          1
                                   No pseudopotential on this center.
   37          6
                                   No pseudopotential on this center.
   38          1
                                   No pseudopotential on this center.
   39          6
                                   No pseudopotential on this center.
   40          1
                                   No pseudopotential on this center.
   41          8
                                   No pseudopotential on this center.
   42          8
                                   No pseudopotential on this center.
   43         28           18
                                      D and up 
                                                     1      469.9324331      -10.00000000    0.00000000
                                                     2       85.4236411      -69.40848050    0.00000000
                                                     2       21.2674984      -12.09510200    0.00000000
                                      S - D
                                                     0      162.1686097        3.00000000    0.00000000
                                                     1      176.5333232       22.02536180    0.00000000
                                                     2       68.9562010      443.01810880    0.00000000
                                                     2       13.5792838      145.56964110    0.00000000
                                      P - D
                                                     0       69.0181506        5.00000000    0.00000000
                                                     1      275.5955596        4.98828240    0.00000000
                                                     2       47.1315453      256.69458530    0.00000000
                                                     2       12.9874075       78.47544500    0.00000000
   44         17
                                   No pseudopotential on this center.
   45          6
                                   No pseudopotential on this center.
   46          6
                                   No pseudopotential on this center.
   47          1
                                   No pseudopotential on this center.
   48          1
                                   No pseudopotential on this center.
   49          1
                                   No pseudopotential on this center.
   50          6
                                   No pseudopotential on this center.
   51          1
                                   No pseudopotential on this center.
   52          1
                                   No pseudopotential on this center.
   53          1
                                   No pseudopotential on this center.
   54          6
                                   No pseudopotential on this center.
   55          1
                                   No pseudopotential on this center.
   56          1
                                   No pseudopotential on this center.
   57          1
                                   No pseudopotential on this center.
   58          6
                                   No pseudopotential on this center.
   59          6
                                   No pseudopotential on this center.
   60          1
                                   No pseudopotential on this center.
[...]
 000930,-0.00004974,0.00001977,0.00002003,0.00000371,-0.00001018,0.0000
 2408,-0.00000547,-0.00001202,-0.00000913,-0.00000651,0.00000272,0.0000
 0260,0.00000418,0.00000256,0.00008381,-0.00015518,0.00000204,-0.000015
 85,0.00002457,0.00005083,-0.00001284,0.00001972,0.00000911,-0.00000475
 ,0.00000022,0.00000389,0.00000062,-0.00000136,-0.00000092,0.00000276,0
 .,-0.00000028,-0.00000590,0.00000164,0.00000562,0.00000125,-0.00000047
 ,-0.00000127,0.00001530,0.00001091,-0.00002756,0.00004589,0.00005568,-
 0.00006549,0.00001713,-0.00001683,-0.00000565,-0.00018599,0.00006463,0
 .00005211,-0.00001987,0.00005356,0.00000990,0.00000504,-0.00002778,-0.
 00001574,-0.00000163,-0.00000214,-0.00000055,0.00000008,0.00000050,-0.
 00000051,-0.00000091,-0.00000029,-0.00000118,0.00000026,-0.00000102,0.
 00000041,0.00000086,0.00000087,-0.00000029,0.00000083,0.00000149,0.000
 00076,-0.00000043,0.00000005,0.00000007,0.00000099,0.00000040,-0.00000
 095,0.00000024,-0.00000091,0.00000039,0.00000048,0.00000146,0.00000157
 ,-0.00000082,-0.00000230,-0.00000097,0.00000153,0.00000031,-0.00000078
 ,-0.00000069,0.00000030,0.00000126,-0.00000444,-0.00001107,0.00001323,
 -0.00000172,0.00000149,-0.00000030,-0.00000109,0.00000243,-0.00000092,
 -0.00000307,-0.00000407,0.00000773,-0.00000058,-0.00000025,0.00000087,
 -0.00000477,0.00001142,-0.00001348,0.00001276,0.00000694,0.00001016,-0
 .00000313,0.00000485,0.00000034,-0.00000560,-0.00000717,0.00000902,0.0
 0000386,0.00000554,-0.00000749,0.00000561,-0.00000299,-0.00000477,-0.0
 0000346,0.00000301,0.00000238,-0.00001038,-0.00000705,0.00001040,-0.00
 001089,0.00000418,0.00000176,0.00000797,-0.00001050,-0.00000910,-0.000
 00236,-0.00000015,0.00000455,0.00001246,0.00000131,-0.00000009,-0.0000
 0259,0.00000007,-0.00000026,0.00000077,0.00001219,0.00000610,-0.000005
 35,0.00000042,-0.00000114,-0.00002265,-0.00001184,-0.00000029,0.000002
 06,0.00000274,-0.00000003,0.00000124,0.00000024,-0.00000096,-0.0000011
 7,-0.00001574,-0.00000977,-0.00000146,0.00000244,0.00000057,-0.0000011
 0,0.00000134,0.00000324,0.00000108,0.00000138,0.00000031,0.00002997,0.
 00002508,0.00000511,0.00000092,0.00000226,-0.00000218,0.00401645,0.003
 64512,-0.00138743,-0.00035756,-0.00005386,0.00071319,0.00135525,-0.005
 62840,-0.00941246,0.00014771,0.00378832,-0.00304219,-0.00027200,-0.000
 54791,0.00033871,0.05176627,-0.18261106,-0.13354350,-0.00148954,-0.001
 42423,0.00201193,0.00381946,-0.00158541,-0.00312267,0.00025926,-0.0001
 3899,-0.00022633,-0.05807687,0.18635199,0.00000783,0.00000457,-0.00001
 723,-0.00000172,-0.00000209,0.00000868,-0.00000770,-0.00000436,0.00001
 369,-0.00001955,0.00001550,-0.00000616,0.00003228,-0.00001743,0.000005
 20,0.00000164,-0.00000032,0.00000185,0.00000074,-0.00000117,0.00000017
 ,-0.00000025,0.00000004,0.00000172,0.00002082,-0.00000672,-0.00000098,
 0.00000723,0.00000199,0.00003415,-0.00002041,0.00001622,-0.00002279,-0
 .00000175,0.00000108,-0.00000112,0.00000739,-0.00002168,0.00001571,-0.
 00002208,0.00000548,-0.00001536,-0.00002886,0.00001507,0.00002060,-0.0
 0001667,0.00001276,-0.00004149,0.00002281,0.00000155,-0.00001033,-0.00
 000441,-0.00002842,0.00003228,0.00004450,-0.00000937,-0.00002322,-0.00
 001305,-0.00002346,0.00000523,-0.00000987,-0.00000417,0.00000002,-0.00
 003743,0.00013662,-0.00002881,0.00000037,0.00001790,0.00000673,-0.0001
 6751,0.00001483,0.00011491,0.00003526,-0.00002141,0.00002014,0.0000656
 9,-0.00001376,0.00002775,0.00000604,-0.00000326,0.00000429,0.00000935,
 -0.00001772,-0.00003021,-0.00000467,-0.00000193,0.00000504,-0.00000033
 ,0.00000039,0.00000105,0.00000375,0.00000560,-0.00000476,0.00000832,0.
 00001796,-0.00001588,-0.00000154,-0.00000785,0.00000150,-0.00000567,0.
 00000040,0.00000601,0.00000083,-0.00000134,-0.00000106,0.00000286,-0.0
 0000003,-0.00000050,-0.00000885,0.00000162,0.00000581,0.00000217,-0.00
 000176,-0.00000253,-0.00000206,0.00003374,-0.00002050,0.00000822,-0.00
 000546,0.00000831,0.00001983,-0.00001517,-0.00000961,0.00000274,-0.000
 01048,0.00001783,-0.00001454,0.00004303,0.00000412,0.00000430,-0.00001
 775,-0.00001149,-0.00000155,-0.00000367,0.00000082,-0.00000016,0.00000
 122,-0.00000072,-0.00000080,-0.00000095,-0.00000091,-0.00000032,-0.000
 00051,0.00000001,0.00000141,0.00000095,-0.00000030,0.00000079,0.000002
 21,0.00000029,-0.00000048,-0.00000034,-0.00000004,0.00000149,0.0000003
 8,-0.00000101,-0.00000019,-0.00000039,0.00000024,0.00000064,0.00000144
 ,0.00000122,-0.00000081,-0.00000203,0.00000015,0.00000211,0.00000067,-
 0.00000107,-0.00000069,-0.00000031,0.00000067,0.00000630,0.00000377,0.
 00000989,-0.00000242,-0.00000277,-0.00000466,0.00000078,0.00000092,0.0
 0000093,-0.00000032,0.00000065,0.00000189,-0.00000099,-0.00000446,-0.0
 0000076,0.00000122,0.00000769,-0.00001059,-0.00000099,0.00000228,0.000
 00649,-0.00000017,0.00000042,0.00000176,-0.00000164,-0.00000479,-0.000
 00072,-0.00000168,0.00000528,-0.00000991,0.00000850,0.00000084,0.00000
 068,-0.00000168,-0.00000467,-0.00000042,0.00000004,-0.00000184,0.00000
 579,-0.00000552,-0.00000021,-0.00000188,-0.00000134,-0.00000413,-0.000
 00374,-0.00000283,0.00000013,0.00000152,0.00001143,0.00000097,-0.00000
 466,-0.00000185,-0.00000259,0.00000071,0.00000218,0.00001109,0.0000036
 2,-0.00000303,-0.00000129,0.,-0.00002149,-0.00001242,0.00000128,0.0000
 0147,0.00000132,0.00000213,0.00000180,-0.00000048,-0.00000010,0.000000
 01,-0.00001636,-0.00000606,-0.00000221,0.00000299,0.00000047,-0.000001
 09,0.00000170,0.00000169,0.00000120,0.00000125,0.00000038,0.00002840,0
 .00002427,0.00000241,0.00000031,0.00000277,-0.00000388,-0.00239042,-0.
 00203540,0.00343049,-0.00019727,0.00074455,-0.00015367,-0.00264075,0.0
 0252568,0.00437163,-0.00492152,-0.00265564,0.00021850,0.00034218,0.000
 37642,-0.00035493,0.03869198,-0.13342723,-0.16228989,0.00129512,0.0019
 3035,-0.00101395,0.00732097,-0.01515479,-0.00911368,0.00031787,-0.0007
 6943,-0.00052405,-0.03899901,0.14637646,0.16592378,-0.00001265,-0.0000
 0667,0.00002462,0.00000616,0.00000088,-0.00001219,0.00000450,0.0000061
 2,-0.00001571,0.00002520,-0.00001505,0.00000954,-0.00004085,0.00002185
 ,-0.00000983,-0.00000216,0.00000029,-0.00000241,-0.00000089,0.00000153
 ,-0.00000021,0.00000065,0.00000079,-0.00000198,-0.00002156,0.00000712,
 -0.00000151,0.00000658,-0.00000614,-0.00003436,0.00002132,-0.00001629,
 0.00002648,0.00000187,-0.00000012,0.00000022,-0.00002775,0.00002989,-0
 .00000994,0.00002651,-0.00000760,0.00001390,0.00003612,-0.00001918,-0.
 00002512,-0.00001962,-0.00001675,0.00006807,-0.00002622,-0.00000058,0.
 00001226,0.00002172,0.00004660,-0.00003997,-0.00000108,-0.00000234,-0.
 00001009,-0.00000638,0.00001232,-0.00001697,0.00001527,0.00002532,0.00
 000619,0.00005716,-0.00002266,-0.00000627,0.00001267,-0.00001453,-0.00
 002550,0.00002945,-0.00028174,0.00040142,-0.00002769,-0.00001606,-0.00
 009194,-0.00005440,0.00000835,-0.00003788,-0.00000521,0.00000096,0.000
 00297,-0.00002029,0.00001303,0.00002720,0.00000610,0.00000331,-0.00000
 730,0.00000307,-0.00000489,0.00000554,-0.00001833,0.00001510,0.0000088
 5,-0.00001033,-0.00000550,0.00000549,0.00000443,0.00000791,-0.00000418
 ,0.00000702,-0.00000066,-0.00000752,-0.00000100,0.00000181,0.00000136,
 -0.00000355,-0.00000007,0.00000071,0.00001054,-0.00000228,-0.00000681,
 -0.00000252,0.00000201,0.00000307,0.00000452,-0.00003310,0.00002195,-0
 .00002692,-0.00001737,0.00000853,-0.00002493,0.00001995,0.00001154,0.0
 0003282,-0.00000219,-0.00003484,0.00002053,-0.00005370,0.00000170,-0.0
 0000524,0.00002624,0.00001615,0.00000190,0.00000396,-0.00000051,0.0000
 0031,-0.00000134,0.00000063,0.00000094,0.00000088,0.00000142,0.0000001
 9,0.00000089,-0.00000012,-0.00000144,-0.00000116,0.00000035,-0.0000009
 9,-0.00000248,-0.00000066,0.00000066,0.00000040,0.00000018,-0.00000168
 ,-0.00000051,0.00000121,0.00000003,0.00000073,-0.00000035,-0.00000060,
 -0.00000191,-0.00000197,0.00000076,0.00000250,0.00000015,-0.00000223,-
 0.00000078,0.00000112,0.00000089,0.00000040,-0.00000074,-0.00001644,0.
 00000187,-0.00001036,0.00000956,0.00000245,0.00000396,-0.00000020,-0.0
 0000315,0.00000075,0.00000082,0.00000091,-0.00000535,0.00000091,0.0000
 0563,0.00000034,0.00001286,-0.00000688,0.00002343,-0.00001470,-0.00001
 533,-0.00001556,0.00000158,-0.00000305,-0.00000201,0.00000331,0.000014
 34,-0.00000612,-0.00000248,0.00000260,0.00000182,-0.00000966,-0.000008
 30,0.00000233,0.00000422,0.00000174,0.00000179,0.00000434,0.00000230,-
 0.00000747,0.00000684,0.00000020,0.00000318,0.00000188,0.00000565,0.00
 000314,0.00000416,0.00000043,-0.00000386,-0.00001489,0.00000128,0.0000
 0441,0.00000208,0.00000256,0.00000252,-0.00000342,-0.00001428,-0.00000
 494,0.00000419,0.00000070,0.00000015,0.00003023,0.00001603,-0.00000084
 ,-0.00000112,-0.00000197,-0.00000125,-0.00000224,0.00000027,0.00000070
 ,0.00000140,0.00001970,0.00000940,0.00000238,-0.00000325,-0.00000100,0
 .00000152,-0.00000211,-0.00000273,-0.00000185,-0.00000161,-0.00000041,
 -0.00003819,-0.00003064,-0.00000396,-0.00000078,-0.00000144,0.00000217
 ,0.00020980,-0.00059537,0.00015840,0.00238819,0.00241477,-0.00023510,0
 .00053800,-0.00022857,-0.00442413,-0.00275252,0.00116738,-0.00278501,-
 0.00022606,0.00012593,-0.00018629,-0.01147555,0.00982079,0.00120157,-0
 .00066930,0.00050211,0.00003867,-0.26139477,0.11553396,-0.02297618,-0.
 00012420,-0.00130345,0.00104491,0.00013912,-0.00122418,0.00123900,0.27
 338756,0.00000343,-0.00000139,-0.00000043,-0.00000475,0.00000107,0.000
 00169,0.00000785,-0.00000385,-0.00000122,-0.00001241,0.00000046,0.0000
 0956,-0.00000892,0.00000203,0.00000314,0.00000041,-0.00000008,0.000001
 05,0.00000054,0.00000012,0.00000070,0.00000036,-0.00000079,0.00000073,
 -0.00000729,0.00000206,0.00000229,-0.00000663,-0.00000629,-0.00000906,
 0.00000144,-0.00000665,0.00000862,0.00000099,0.00000049,0.00000314,-0.
 00001028,0.00000894,0.00002424,0.00001095,-0.00000127,-0.00000426,-0.0
 0000336,0.00000791,-0.00000438,0.00004889,-0.00000161,-0.00001685,0.00
 000420,-0.00000420,0.00000252,-0.00002201,-0.00000289,-0.00001468,0.00
 008019,-0.00003324,-0.00002312,-0.00003120,-0.00001467,-0.00003492,0.0
 0000530,0.00002342,0.00001295,0.00006085,-0.00003427,0.00008222,0.0000
 1512,0.00004856,-0.00002396,-0.00006336,-0.00041740,0.00042412,-0.0000
 1057,-0.00003662,-0.00007898,-0.00004449,0.00001761,-0.00000137,0.0000
 0846,0.00000112,-0.00000216,0.00001577,0.00000851,0.00001135,-0.000001
 32,-0.00000280,-0.00000468,0.00000380,0.00000170,-0.00000047,0.0000398
 5,-0.00003614,0.00001704,0.00000855,0.00001155,0.00000816,-0.00000640,
 -0.00000975,0.00001129,-0.00000134,0.00000019,0.00000078,0.00000015,-0
 .00000054,-0.00000034,0.00000081,0.00000010,0.00000001,-0.00000119,0.0
 0000059,0.00000125,-0.00000004,0.00000030,-0.00000006,0.00000171,0.000
 01705,0.00001222,0.00004873,0.00005168,-0.00006700,0.00000458,-0.00000
 592,-0.00000036,-0.00007000,0.00001427,0.00002482,-0.00000892,-0.00000
 414,0.00001716,0.00000055,-0.00000973,-0.00000261,-0.00000048,0.000000
 40,-0.00000069,-0.00000009,-0.00000023,0.,-0.00000017,0.00000018,-0.00
 000056,0.00000030,-0.00000048,0.00000037,0.,0.00000023,-0.00000010,0.0
 0000010,0.00000007,0.00000051,-0.00000018,0.00000012,-0.00000009,0.000
 00012,0.00000018,-0.00000023,0.00000036,-0.00000057,0.00000023,-0.0000
 0013,0.00000034,0.00000075,-0.00000007,-0.00000075,-0.00000092,0.00000
 026,-0.00000001,-0.00000006,-0.00000031,0.00000045,0.00000064,0.000036
 83,-0.00000184,0.00000391,-0.00002317,-0.00000157,0.00000083,-0.000003
 92,0.00000722,-0.00000529,0.00000066,-0.00000254,0.00000676,0.00000137
 ,-0.00000312,0.00000049,-0.00001700,0.00001667,-0.00003172,0.00002127,
 0.00000696,0.00001228,-0.00000745,0.00000452,0.00000261,-0.00000147,-0
 .00001303,0.00000874,-0.00000188,-0.00001633,0.00002736,0.00002344,-0.
 00000896,-0.00003446,-0.00000762,0.00001205,-0.00000572,-0.00000948,-0
 .00001024,0.00001546,-0.00000115,-0.00000342,0.00000232,0.00000221,-0.
 00000188,0.00000079,-0.00000005,0.00000022,0.00000073,0.00000272,-0.00
 000069,0.00000028,-0.00000051,0.00000035,-0.00000132,0.00000049,0.0000
 0169,0.00000200,-0.00000185,0.00000082,-0.00000132,-0.00000763,-0.0000
 0360,-0.00000003,-0.00000016,0.00000072,-0.00000063,0.00000048,0.00000
 025,-0.00000058,-0.00000119,-0.00000338,-0.00000308,-0.00000012,0.0000
 0034,0.00000046,-0.00000047,0.00000040,0.00000098,0.00000056,0.0000003
 9,-0.00000006,0.00000901,0.00000640,0.00000137,0.00000189,0.00000274,-
 0.00000096,-0.00079543,-0.00051127,0.00001415,0.00172332,0.00095912,-0
 .00563515,0.00051955,0.00305984,-0.00359203,0.01850521,-0.00512912,0.0
 0335474,0.00092327,-0.00024597,0.00009085,-0.00790052,0.00630250,-0.00
 176688,-0.00036788,0.00024496,-0.00016110,0.11576573,-0.10158883,0.001
 78299,-0.00154742,-0.00124701,0.00197689,-0.00099289,-0.00137691,0.001
 96885,-0.12590744,0.09995613,0.00000028,0.00000168,-0.00000291,0.00000
 192,-0.00000076,0.00000068,-0.00000543,0.00000113,0.00000305,0.0000027
 6,0.00000166,-0.00000661,0.00001020,-0.00000386,0.00000019,0.,0.000000
 15,-0.00000014,-0.00000019,-0.00000042,-0.00000019,-0.00000040,0.00000
 024,-0.00000015,0.00000707,-0.00000206,-0.00000152,0.00000196,0.000002
 09,0.00000875,-0.00000388,0.00000447,-0.00000695,-0.00000077,0.0000005
 0,-0.00000190,0.00001081,-0.00000632,-0.00000953,-0.00000766,0.0000014
 2,0.00000259,-0.00000435,-0.00000165,0.00000674,-0.00003699,-0.0000014
 8,0.00002262,0.00000205,0.00000270,-0.00000334,0.00002112,0.00001042,0
 .00000393,-0.00004504,0.00001195,0.00001162,0.00001148,0.00000204,0.00
 002374,-0.00000213,-0.00001309,-0.00001368,-0.00007466,-0.00000380,-0.
 00004949,-0.00002610,0.00003162,0.00003620,0.00008155,0.00051639,-0.00
 020785,0.00009148,0.00002541,0.00005858,0.00003163,0.00002463,0.000025
 22,-0.00000713,-0.00000089,0.00000140,0.00000437,-0.00001299,-0.000015
 64,-0.00000040,0.00000084,0.00000346,-0.00000078,0.00000024,0.00000681
 ,-0.00002370,0.00003251,-0.00001414,-0.00001076,-0.00000897,-0.0000038
 7,0.00000325,0.00000789,-0.00000419,-0.00000050,0.00000007,0.00000102,
 0.00000007,-0.00000002,-0.00000005,0.00000014,-0.00000007,-0.00000012,
 -0.00000134,0.00000010,0.00000036,0.00000038,-0.00000049,-0.00000051,-
 0.00001399,0.00001171,0.00000100,-0.00002918,-0.00004556,0.00001342,0.
 00000172,0.00000017,-0.00000201,0.00005501,-0.00001954,-0.00000639,-0.
 00000132,0.00001327,-0.00001596,0.00000127,0.00000166,0.00000062,-0.00
 000007,-0.00000088,0.00000058,0.00000005,0.00000034,-0.00000020,-0.000
 00005,-0.00000032,0.00000010,-0.00000025,0.00000022,-0.00000018,0.0000
 0029,0.00000006,0.00000003,0.00000013,0.00000041,-0.00000016,-0.000000
 08,-0.00000018,0.,0.00000028,-0.00000001,-0.00000005,-0.00000021,0.000
 00024,-0.00000009,0.00000026,0.00000017,-0.00000013,-0.00000026,-0.000
 00016,0.00000045,0.00000040,0.00000015,-0.00000015,-0.00000011,-0.0000
 0031,-0.00000015,0.00000189,-0.00000115,-0.00001483,-0.00000029,0.0000
 0482,0.00000559,0.00000158,-0.00000192,0.00000056,-0.00000052,-0.00000
 071,0.00000033,-0.00000008,-0.00000023,-0.00000131,-0.00000936,0.00000
 123,-0.00000510,0.00001582,0.00002200,-0.00000003,0.00000139,0.0000002
 1,-0.00000226,-0.00000099,-0.00000799,0.00000369,-0.00000537,0.0000003
 2,-0.00000401,-0.00000192,0.00000592,0.00002055,0.00000418,-0.00001013
 ,0.00000133,0.00000362,0.00000740,-0.00000698,0.,0.00000330,0.00000173
 ,0.00000092,-0.00000147,-0.00000422,-0.00000046,-0.00000100,0.00000005
 ,0.00000089,0.00000230,-0.00000056,0.00000003,0.00000051,0.00000325,-0
 .00000059,0.00000193,-0.00000020,-0.00000002,-0.00000060,0.00000086,0.
 00000077,-0.00000002,0.00000052,0.00000036,-0.00000027,0.00000077,0.,-
 0.00000025,0.00000028,0.00000057,-0.00000034,0.00000111,-0.00000026,0.
 00000034,-0.00000010,0.00000007,0.00000013,-0.00000037,-0.00000013,0.,
 0.00000013,-0.00000024,0.00000017,-0.00000067,0.00000154,0.00000022,0.
 00000331,0.00020251,-0.00023784,-0.00108023,-0.00094469,-0.00507427,-0
 .00001397,-0.00363876,-0.00392876,-0.00048326,0.01758174,-0.00912308,0
 .00486235,0.00082637,-0.00055493,0.00012660,-0.01888062,0.01049366,0.0
 0223399,-0.00098131,0.00041569,0.00004519,-0.02321379,0.00183098,-0.04
 849184,0.00085657,0.00217743,-0.00058088,0.00148046,0.00181719,-0.0005
 8658,0.02665395,0.00157455,0.04410032\\-0.00000094,0.00000116,0.000001
 89,-0.00000069,0.00000200,0.00000187,-0.00000066,0.00000227,0.00000171
 ,0.00000043,0.00000330,0.00000104,-0.00000115,0.00000033,0.00000194,-0
 .00000070,0.00000381,0.00000159,-0.00000102,0.00000091,0.00000229,-0.0
 0000094,0.00000266,0.00000212,-0.00000056,0.00000333,0.00000120,-0.000
 00001,0.00000239,0.00000089,-0.00000018,0.00000364,0.00000112,-0.00000
 038,0.00000396,0.00000098,-0.00000094,0.00000049,-0.00000035,-0.000000
 69,0.,0.00000073,-0.00000101,-0.00000039,0.00000114,-0.00000028,0.0000
 0254,0.00000053,-0.00000167,-0.00000313,0.00000106,-0.00000023,0.00000
 396,0.00000089,0.00000086,0.00000127,-0.00000639,0.00000287,-0.0000017
 3,0.00000458,-0.00000069,0.00000128,0.00000012,0.00000064,0.00000115,0
 .00000130,0.00000004,-0.00000088,0.00000078,0.00000013,-0.00000232,-0.
 00000011,0.00000102,-0.00000084,-0.00000078,-0.00000178,0.00000078,-0.
 00000115,0.00000020,-0.00000410,0.00000186,-0.00000106,-0.00000032,-0.
 00000289,0.00000099,-0.00000159,-0.00000204,0.00000089,0.00000096,-0.0
 0000075,0.00000055,0.00000268,0.00000028,0.00000077,0.00000307,-0.0000
 0065,-0.00000063,0.00000335,0.00000008,-0.00000134,-0.00000177,0.00000
 230,-0.00000249,-0.00000228,0.00000302,-0.00000070,-0.00000266,0.00000
 160,-0.00000052,-0.00000205,0.00000173,-0.00000027,-0.00000247,0.00000
 105,-0.00000047,0.00000126,-0.00000019,-0.00000086,0.00000112,0.000000
 08,0.00000017,-0.00000003,0.00000355,-0.00000029,0.00000275,0.00000037
 ,-0.00000101,-0.00000265,-0.00000070,0.,-0.00000253,0.00000375,-0.0000
 0059,-0.00000259,0.00000144,-0.00000032,-0.00000265,0.00000042,-0.0000
 0011,-0.00000187,0.00000010,-0.00000037,-0.00000210,0.00000090,-0.0000
 0003,-0.00000279,-0.00000006,-0.00000076,-0.00000381,0.00000131,-0.000
 00088,-0.00000433,0.00000165,-0.00000052,-0.00000436,0.00000084,-0.000
 00099,-0.00000361,0.00000193,-0.00000018,-0.00000324,0.00000021,0.0000
 0016,-0.00000250,-0.00000025,0.00000009,-0.00000387,-0.00000044,-0.000
 00032,-0.00000382,0.00000040,-0.00000027,0.00000152,0.00000141,-0.0000
 0101,0.00000213,0.00000215,-0.00000096,0.00000220,0.00000214,-0.000000
 86,0.00000313,0.00000196,-0.00000083,0.00000186,0.00000242,-0.00000067
 ,0.00000031,0.00000155,-0.00000009,0.00000027,0.00000071,-0.00000082,0
 .00000060,0.00000102,-0.00000127,0.00000063,0.00000156,-0.00000030,0.0
 0000162,0.00000075,-0.00000018,0.00000092,0.00000001,-0.00000091,0.000
 00136,0.00000204,-0.00000012,0.00000310,0.00000090,0.00000025,0.000000
 22,-0.00000172,0.00000099,0.00000060,-0.00000278,0.00000093,-0.0000007
 7,-0.00000091,0.00000144,0.00000019,-0.00000286,0.00000125,0.00000111,
 -0.00000257,0.00000068,-0.00000100,-0.00000185,0.00000051,-0.00000084,
 -0.00000055,0.00000100,-0.00000055,-0.00000274,0.00000166,0.00000062,-
 0.00000349,0.00000067,-0.00000152,-0.00000151,0.00000181,-0.00000055,-
 0.00000412,0.00000205,-0.00000061,-0.00000440,0.00000189,0.00000022,-0
 .00000386,0.00000197,-0.00000095,-0.00000423,0.00000176,-0.00000091,-0
 .00000290,0.00000007,-0.00000207,-0.00000027,0.00000047,0.00000009,-0.
 00000169,0.00000030,-0.00000071,-0.00000083,0.00000095,0.00000111,-0.0
 0000220,0.00000074,-0.00000017,-0.00000152,0.00000008,-0.00000095,-0.0
 0000049,0.00000106,0.00000099,-0.00000231,0.00000105,0.00000103,-0.000
 00215,0.00000104,0.00000062,-0.00000199,0.00000058,-0.00000046,-0.0000
 0127,0.00000139,0.00000162,-0.00000287,0.00000114,0.00000086,-0.000002
 46\\\@


 IF AT FIRST YOU DON'T SUCCEED, TRY, TRY AGAIN.
 THEN GIVE UP;
 THERE'S NO USE BEING A DAMN FOOL ABOUT IT.

                                 -- W. C. FIELDS
 Job cpu time:       1 days 16 hours  1 minutes 31.4 seconds.
 Elapsed time:       0 days  3 hours 25 minutes 38.3 seconds.
 File lengths (MBytes):  RWF=  18883 Int=      0 D2E=      0 Chk=    144 Scr=      1
 Normal termination of Gaussian 16 at Mon May 16 19:06:28 2022.
