 Entering Gaussian System, Link 0=g16
 Input=Pro_R_E_ts1_m06l.com
 Output=Pro_R_E_ts1_m06l.log
 Initial command:
 /apps/gaussian16/B.01/AVX2/g16/l1.exe "/tmp/51822057/Gau-17880.inp" -scrdir="/tmp/51822057/"
 Entering Link 1 = /apps/gaussian16/B.01/AVX2/g16/l1.exe PID=     17881.
  
 Copyright (c) 1988-2017, Gaussian, Inc.  All Rights Reserved.
  
 This is part of the Gaussian(R) 16 program.  It is based on
 the Gaussian(R) 09 system (copyright 2009, Gaussian, Inc.),
 the Gaussian(R) 03 system (copyright 2003, Gaussian, Inc.),
 the Gaussian(R) 98 system (copyright 1998, Gaussian, Inc.),
 the Gaussian(R) 94 system (copyright 1995, Gaussian, Inc.),
 the Gaussian 92(TM) system (copyright 1992, Gaussian, Inc.),
 the Gaussian 90(TM) system (copyright 1990, Gaussian, Inc.),
 the Gaussian 88(TM) system (copyright 1988, Gaussian, Inc.),
 the Gaussian 86(TM) system (copyright 1986, Carnegie Mellon
 University), and the Gaussian 82(TM) system (copyright 1983,
 Carnegie Mellon University). Gaussian is a federally registered
 trademark of Gaussian, Inc.
  
 This software contains proprietary and confidential information,
 including trade secrets, belonging to Gaussian, Inc.
  
 This software is provided under written license and may be
 used, copied, transmitted, or stored only in accord with that
 written license.
  
 The following legend is applicable only to US Government
 contracts under FAR:
  
                    RESTRICTED RIGHTS LEGEND
  
 Use, reproduction and disclosure by the US Government is
 subject to restrictions as set forth in subparagraphs (a)
 and (c) of the Commercial Computer Software - Restricted
 Rights clause in FAR 52.227-19.
  
 Gaussian, Inc.
 340 Quinnipiac St., Bldg. 40, Wallingford CT 06492
  
  
 ---------------------------------------------------------------
 Warning -- This program may not be used in any manner that
 competes with the business of Gaussian, Inc. or will provide
 assistance to any competitor of Gaussian, Inc.  The licensee
 of this program is prohibited from giving any competitor of
 Gaussian, Inc. access to this program.  By using this program,
 the user acknowledges that Gaussian, Inc. is engaged in the
 business of creating and licensing software in the field of
 computational chemistry and represents and warrants to the
 licensee that it is not a competitor of Gaussian, Inc. and that
 it will not use this program in any manner prohibited above.
 ---------------------------------------------------------------
  

 Cite this work as:
 Gaussian 16, Revision B.01,
 M. J. Frisch, G. W. Trucks, H. B. Schlegel, G. E. Scuseria, 
 M. A. Robb, J. R. Cheeseman, G. Scalmani, V. Barone, 
 G. A. Petersson, H. Nakatsuji, X. Li, M. Caricato, A. V. Marenich, 
 J. Bloino, B. G. Janesko, R. Gomperts, B. Mennucci, H. P. Hratchian, 
 J. V. Ortiz, A. F. Izmaylov, J. L. Sonnenberg, D. Williams-Young, 
 F. Ding, F. Lipparini, F. Egidi, J. Goings, B. Peng, A. Petrone, 
 T. Henderson, D. Ranasinghe, V. G. Zakrzewski, J. Gao, N. Rega, 
 G. Zheng, W. Liang, M. Hada, M. Ehara, K. Toyota, R. Fukuda, 
 J. Hasegawa, M. Ishida, T. Nakajima, Y. Honda, O. Kitao, H. Nakai, 
 T. Vreven, K. Throssell, J. A. Montgomery, Jr., J. E. Peralta, 
 F. Ogliaro, M. J. Bearpark, J. J. Heyd, E. N. Brothers, K. N. Kudin, 
 V. N. Staroverov, T. A. Keith, R. Kobayashi, J. Normand, 
 K. Raghavachari, A. P. Rendell, J. C. Burant, S. S. Iyengar, 
 J. Tomasi, M. Cossi, J. M. Millam, M. Klene, C. Adamo, R. Cammi, 
 J. W. Ochterski, R. L. Martin, K. Morokuma, O. Farkas, 
 J. B. Foresman, and D. J. Fox, Gaussian, Inc., Wallingford CT, 2016.
 
 ******************************************
 Gaussian 16:  ES64L-G16RevB.01 20-Dec-2017
                24-Aug-2022 
 ******************************************
 %nprocshared=12
 Will use up to   12 processors via shared memory.
 %mem=24GB
 --------------------------------------------------------------------
 #m06l/gen pseudo=read integral=ultrafine temperature=308 scrf=(read)
 --------------------------------------------------------------------
 1/38=1,40=2,112=308000,172=1/1;
 2/12=2,17=6,18=5,40=1/2;
 3/5=7,11=2,16=1,17=8,25=1,30=1,70=2203,74=-53,75=-5/1,2,3;
 4//1;
 5/5=2,38=5/2;
 6/7=2,8=2,9=2,10=2,28=1/1;
 99/5=1,9=1/99;
 -------------------
 Title Card Required
 -------------------
 Symbolic Z-matrix:
 Charge =  0 Multiplicity = 2
 C                     2.42407  -1.14421   3.2567 
 C                     1.49352  -0.53231   4.10841 
 C                     0.22684  -0.1212    3.61106 
 C                    -0.0316   -0.33433   2.20234 
 C                     2.09614  -1.30737   1.89868 
 H                    -0.65276   0.63548   5.47143 
 H                     3.40178  -1.48548   3.62466 
 H                     1.72863  -0.37886   5.17291 
 C                    -0.82422   0.44967   4.40033 
 C                    -2.2623    0.42558   2.45267 
 C                    -2.06678   0.70945   3.82189 
 H                    -2.90806   1.09129   4.41871 
 N                    -1.23436  -0.0266    1.64942 
 N                     0.89662  -0.89604   1.39663 
 C                     2.9416   -1.94914   0.89323 
 C                    -3.50111   0.42588   1.72622 
 N                     2.70097  -1.85352  -0.385 
 N                    -3.52975  -0.01125   0.47403 
 Ni                   -1.6605   -0.14546  -0.22906 
 C                     0.11556   0.51714  -0.70369 
 C                     0.58178   1.77477  -0.46357 
 C                    -2.03011  -0.38184  -2.22304 
 H                    -3.13018  -0.3946   -2.2547 
 C                    -1.30192   0.83463  -2.45077 
 H                    -0.33468   0.73104  -2.96365 
 C                    -1.32839  -1.63955  -2.16888 
 H                    -1.91413  -2.53841  -1.92075 
 C                     0.05892  -1.80399  -2.42442 
 H                     0.59224  -1.04322  -3.01887 
 H                    -0.14548   2.58284  -0.69363 
 C                    -5.62923   0.77733   1.15797 
 H                    -5.75873   1.81769   0.79082 
 H                    -6.59377   0.4077    1.55197 
 C                     4.48277  -3.36741   0.08782 
 H                     4.37319  -4.46347   0.20298 
 H                     5.56126  -3.11907   0.02065 
 C                     3.62452  -2.77653  -1.07683 
 H                     2.99538  -3.57834  -1.52658 
 C                    -4.96061  -0.14319   0.10493 
 H                    -5.1278    0.25717  -0.91893 
 O                     3.9582   -2.74133   1.29585 
 O                    -4.67647   0.80964   2.26437 
 Ni                    0.51667  -1.34667  -0.49576 
 Cl                    0.12876  -3.62635   0.10066 
 C                     4.455    -2.14236  -2.24189 
 C                     5.37878  -1.01339  -1.74053 
 H                     4.79565  -0.19238  -1.2772 
 H                     6.12369  -1.3698   -0.99818 
 H                     5.94869  -0.58079  -2.58929 
 C                     5.30018  -3.26625  -2.885 
 H                     4.6575   -4.09421  -3.25336 
 H                     5.87227  -2.8718   -3.75068 
 H                     6.03693  -3.69773  -2.17443 
 C                     3.49087  -1.57053  -3.30105 
 H                     2.88088  -0.74641  -2.88031 
 H                     4.06042  -1.17093  -4.16635 
 H                     2.79971  -2.35169  -3.68111 
 C                    -5.48583  -1.6269    0.11627 
 C                    -5.38529  -2.25065   1.5254 
 H                    -4.3342   -2.28153   1.87981 
 H                    -5.99063  -1.70353   2.27733 
 H                    -5.75605  -3.29655   1.50293 
 C                    -4.6557   -2.47825  -0.86438 
 H                    -4.70384  -2.07522  -1.89862 
 H                    -3.5943   -2.52341  -0.54884 
 H                    -5.04446  -3.51728  -0.89527 
 C                    -6.95802  -1.61508  -0.35463 
 H                    -7.05525  -1.17288  -1.36934 
 H                    -7.35244  -2.65137  -0.40105 
 H                    -7.61973  -1.04443   0.33045 
 C                     1.85852   2.3031    0.02369 
 C                     1.95074   3.68509   0.33492 
 C                     3.03108   1.51971   0.2015 
 C                     3.13269   4.26422   0.82241 
 H                     1.06378   4.32535   0.19534 
 C                     4.21495   2.083     0.68061 
 H                     2.99931   0.45487  -0.06791 
 C                     4.28113   3.46075   1.00457 
 H                     3.14949   5.33866   1.05425 
 H                     5.12197   1.47238   0.8114 
 C                     5.60655   5.29238   1.79861 
 H                     5.42897   5.94577   0.91513 
 H                     4.90583   5.58807   2.61129 
 H                     6.64581   5.43558   2.14933 
 O                     5.48116   3.91346   1.46897 
 H                     0.43663  -2.83348  -2.51689 
 C                    -1.88508   2.17467  -2.57879 
 C                    -3.19279   2.5102   -2.13449 
 C                    -1.10933   3.20406  -3.17937 
 C                    -3.7071    3.80196  -2.30984 
 H                    -3.80524   1.7461   -1.63447 
 C                    -1.62254   4.5      -3.34739 
 H                    -0.09059   2.96977  -3.52924 
 C                    -2.92611   4.80618  -2.91713 
 H                    -4.72734   4.03326  -1.96376 
 H                    -1.0003    5.27582  -3.82151 
 H                    -3.33197   5.82157  -3.04906 
 
 Stoichiometry    C41H46ClN4Ni2O3(2)
 Framework group  C1[X(C41H46ClN4Ni2O3)]
 Deg. of freedom   285
 Full point group                 C1      NOp   1
 Largest Abelian subgroup         C1      NOp   1
 Largest concise Abelian subgroup C1      NOp   1
                         Standard orientation:                         
 ---------------------------------------------------------------------
 Center     Atomic      Atomic             Coordinates (Angstroms)
 Number     Number       Type             X           Y           Z
 ---------------------------------------------------------------------
      1          6           0        2.424066   -1.144211    3.256703
      2          6           0        1.493516   -0.532308    4.108411
      3          6           0        0.226844   -0.121197    3.611059
      4          6           0       -0.031600   -0.334329    2.202336
      5          6           0        2.096144   -1.307374    1.898680
      6          1           0       -0.652762    0.635482    5.471429
      7          1           0        3.401780   -1.485476    3.624661
      8          1           0        1.728631   -0.378855    5.172907
      9          6           0       -0.824217    0.449674    4.400328
     10          6           0       -2.262302    0.425580    2.452673
     11          6           0       -2.066778    0.709453    3.821894
     12          1           0       -2.908064    1.091290    4.418710
     13          7           0       -1.234357   -0.026597    1.649421
     14          7           0        0.896622   -0.896037    1.396625
     15          6           0        2.941602   -1.949135    0.893234
     16          6           0       -3.501111    0.425878    1.726215
     17          7           0        2.700965   -1.853516   -0.384998
     18          7           0       -3.529754   -0.011247    0.474029
     19         28           0       -1.660500   -0.145463   -0.229056
     20          6           0        0.115561    0.517142   -0.703688
     21          6           0        0.581784    1.774765   -0.463570
     22          6           0       -2.030110   -0.381837   -2.223043
     23          1           0       -3.130180   -0.394600   -2.254697
     24          6           0       -1.301921    0.834630   -2.450773
     25          1           0       -0.334683    0.731040   -2.963645
     26          6           0       -1.328394   -1.639551   -2.168881
     27          1           0       -1.914132   -2.538413   -1.920748
     28          6           0        0.058920   -1.803986   -2.424415
     29          1           0        0.592240   -1.043215   -3.018872
     30          1           0       -0.145482    2.582837   -0.693634
     31          6           0       -5.629232    0.777331    1.157973
     32          1           0       -5.758732    1.817686    0.790821
     33          1           0       -6.593775    0.407700    1.551973
     34          6           0        4.482774   -3.367414    0.087817
     35          1           0        4.373186   -4.463474    0.202984
     36          1           0        5.561260   -3.119073    0.020645
     37          6           0        3.624519   -2.776525   -1.076830
     38          1           0        2.995384   -3.578337   -1.526575
     39          6           0       -4.960612   -0.143187    0.104927
     40          1           0       -5.127797    0.257173   -0.918929
     41          8           0        3.958204   -2.741332    1.295845
     42          8           0       -4.676474    0.809636    2.264367
     43         28           0        0.516665   -1.346668   -0.495759
     44         17           0        0.128757   -3.626351    0.100660
     45          6           0        4.454996   -2.142355   -2.241886
     46          6           0        5.378778   -1.013386   -1.740528
     47          1           0        4.795646   -0.192382   -1.277200
     48          1           0        6.123688   -1.369803   -0.998181
     49          1           0        5.948689   -0.580787   -2.589290
     50          6           0        5.300175   -3.266250   -2.884999
     51          1           0        4.657498   -4.094213   -3.253356
     52          1           0        5.872268   -2.871800   -3.750678
     53          1           0        6.036932   -3.697727   -2.174426
     54          6           0        3.490874   -1.570532   -3.301046
     55          1           0        2.880882   -0.746414   -2.880310
     56          1           0        4.060418   -1.170930   -4.166353
     57          1           0        2.799713   -2.351685   -3.681106
     58          6           0       -5.485829   -1.626898    0.116266
     59          6           0       -5.385286   -2.250653    1.525403
     60          1           0       -4.334204   -2.281525    1.879806
     61          1           0       -5.990632   -1.703534    2.277329
     62          1           0       -5.756052   -3.296552    1.502930
     63          6           0       -4.655700   -2.478252   -0.864384
     64          1           0       -4.703839   -2.075217   -1.898617
     65          1           0       -3.594297   -2.523405   -0.548844
     66          1           0       -5.044458   -3.517282   -0.895267
     67          6           0       -6.958016   -1.615084   -0.354629
     68          1           0       -7.055245   -1.172881   -1.369344
     69          1           0       -7.352443   -2.651370   -0.401053
     70          1           0       -7.619731   -1.044428    0.330452
     71          6           0        1.858521    2.303098    0.023689
     72          6           0        1.950741    3.685086    0.334916
     73          6           0        3.031084    1.519707    0.201501
     74          6           0        3.132691    4.264216    0.822406
     75          1           0        1.063785    4.325345    0.195337
     76          6           0        4.214945    2.082998    0.680611
     77          1           0        2.999306    0.454873   -0.067913
     78          6           0        4.281135    3.460753    1.004570
     79          1           0        3.149495    5.338655    1.054249
     80          1           0        5.121970    1.472381    0.811399
     81          6           0        5.606551    5.292379    1.798607
     82          1           0        5.428968    5.945774    0.915127
     83          1           0        4.905830    5.588070    2.611290
     84          1           0        6.645811    5.435584    2.149329
     85          8           0        5.481156    3.913462    1.468966
     86          1           0        0.436631   -2.833478   -2.516891
     87          6           0       -1.885078    2.174674   -2.578791
     88          6           0       -3.192789    2.510198   -2.134492
     89          6           0       -1.109332    3.204055   -3.179365
     90          6           0       -3.707099    3.801956   -2.309842
     91          1           0       -3.805235    1.746101   -1.634466
     92          6           0       -1.622535    4.500001   -3.347389
     93          1           0       -0.090585    2.969773   -3.529240
     94          6           0       -2.926113    4.806181   -2.917128
     95          1           0       -4.727343    4.033260   -1.963755
     96          1           0       -1.000297    5.275822   -3.821512
     97          1           0       -3.331975    5.821569   -3.049060
 ---------------------------------------------------------------------
 Rotational constants (GHZ):           0.0705850           0.0446264           0.0399156
 General basis read from cards:  (5D, 7F)
 ======================================================================================================
                                       Pseudopotential Parameters
 ======================================================================================================
  Center     Atomic      Valence      Angular      Power
  Number     Number     Electrons     Momentum     of R      Exponent        Coefficient   SO-Coeffient
 ======================================================================================================
    1          6
                                   No pseudopotential on this center.
    2          6
                                   No pseudopotential on this center.
    3          6
                                   No pseudopotential on this center.
    4          6
                                   No pseudopotential on this center.
    5          6
                                   No pseudopotential on this center.
    6          1
                                   No pseudopotential on this center.
    7          1
                                   No pseudopotential on this center.
    8          1
                                   No pseudopotential on this center.
    9          6
                                   No pseudopotential on this center.
   10          6
                                   No pseudopotential on this center.
   11          6
                                   No pseudopotential on this center.
   12          1
                                   No pseudopotential on this center.
   13          7
                                   No pseudopotential on this center.
   14          7
                                   No pseudopotential on this center.
   15          6
                                   No pseudopotential on this center.
   16          6
                                   No pseudopotential on this center.
   17          7
                                   No pseudopotential on this center.
   18          7
                                   No pseudopotential on this center.
   19         28           18
                                      D and up 
                                                     1      469.9324331      -10.00000000    0.00000000
                                                     2       85.4236411      -69.40848050    0.00000000
                                                     2       21.2674984      -12.09510200    0.00000000
                                      S - D
                                                     0      162.1686097        3.00000000    0.00000000
                                                     1      176.5333232       22.02536180    0.00000000
                                                     2       68.9562010      443.01810880    0.00000000
                                                     2       13.5792838      145.56964110    0.00000000
                                      P - D
                                                     0       69.0181506        5.00000000    0.00000000
                                                     1      275.5955596        4.98828240    0.00000000
                                                     2       47.1315453      256.69458530    0.00000000
                                                     2       12.9874075       78.47544500    0.00000000
   20          6
                                   No pseudopotential on this center.
   21          6
                                   No pseudopotential on this center.
   22          6
                                   No pseudopotential on this center.
   23          1
                                   No pseudopotential on this center.
   24          6
                                   No pseudopotential on this center.
   25          1
                                   No pseudopotential on this center.
   26          6
                                   No pseudopotential on this center.
   27          1
                                   No pseudopotential on this center.
   28          6
                                   No pseudopotential on this center.
   29          1
                                   No pseudopotential on this center.
   30          1
                                   No pseudopotential on this center.
   31          6
                                   No pseudopotential on this center.
   32          1
                                   No pseudopotential on this center.
   33          1
                                   No pseudopotential on this center.
   34          6
                                   No pseudopotential on this center.
   35          1
                                   No pseudopotential on this center.
   36          1
                                   No pseudopotential on this center.
   37          6
                                   No pseudopotential on this center.
   38          1
                                   No pseudopotential on this center.
   39          6
                                   No pseudopotential on this center.
   40          1
                                   No pseudopotential on this center.
   41          8
                                   No pseudopotential on this center.
   42          8
                                   No pseudopotential on this center.
   43         28           18
                                      D and up 
                                                     1      469.9324331      -10.00000000    0.00000000
                                                     2       85.4236411      -69.40848050    0.00000000
                                                     2       21.2674984      -12.09510200    0.00000000
                                      S - D
                                                     0      162.1686097        3.00000000    0.00000000
                                                     1      176.5333232       22.02536180    0.00000000
                                                     2       68.9562010      443.01810880    0.00000000
                                                     2       13.5792838      145.56964110    0.00000000
                                      P - D
                                                     0       69.0181506        5.00000000    0.00000000
                                                     1      275.5955596        4.98828240    0.00000000
                                                     2       47.1315453      256.69458530    0.00000000
                                                     2       12.9874075       78.47544500    0.00000000
   44         17
                                   No pseudopotential on this center.
   45          6
                                   No pseudopotential on this center.
   46          6
                                   No pseudopotential on this center.
   47          1
                                   No pseudopotential on this center.
   48          1
                                   No pseudopotential on this center.
   49          1
                                   No pseudopotential on this center.
   50          6
                                   No pseudopotential on this center.
   51          1
                                   No pseudopotential on this center.
   52          1
                                   No pseudopotential on this center.
   53          1
                                   No pseudopotential on this center.
   54          6
                                   No pseudopotential on this center.
   55          1
                                   No pseudopotential on this center.
   56          1
                                   No pseudopotential on this center.
   57          1
                                   No pseudopotential on this center.
   58          6
                                   No pseudopotential on this center.
   59          6
                                   No pseudopotential on this center.
   60          1
                                   No pseudopotential on this center.
   61          1
                                   No pseudopotential on this center.
   62          1
                                   No pseudopotential on this center.
   63          6
                                   No pseudopotential on this center.
   64          1
                                   No pseudopotential on this center.
   65          1
                                   No pseudopotential on this center.
   66          1
                                   No pseudopotential on this center.
   67          6
                                   No pseudopotential on this center.
   68          1
                                   No pseudopotential on this center.
   69          1
                                   No pseudopotential on this center.
   70          1
                                   No pseudopotential on this center.
   71          6
                                   No pseudopotential on this center.
   72          6
                                   No pseudopotential on this center.
   73          6
                                   No pseudopotential on this center.
   74          6
                                   No pseudopotential on this center.
   75          1
                                   No pseudopotential on this center.
   76          6
                                   No pseudopotential on this center.
   77          1
                                   No pseudopotential on this center.
   78          6
                                   No pseudopotential on this center.
   79          1
                                   No pseudopotential on this center.
   80          1
                                   No pseudopotential on this center.
   81          6
                                   No pseudopotential on this center.
   82          1
                                   No pseudopotential on this center.
   83          1
                                   No pseudopotential on this center.
   84          1
                                   No pseudopotential on this center.
   85          8
                                   No pseudopotential on this center.
   86          1
                                   No pseudopotential on this center.
   87          6
                                   No pseudopotential on this center.
   88          6
                                   No pseudopotential on this center.
   89          6
                                   No pseudopotential on this center.
   90          6
                                   No pseudopotential on this center.
   91          1
                                   No pseudopotential on this center.
   92          6
                                   No pseudopotential on this center.
   93          1
                                   No pseudopotential on this center.
   94          6
                                   No pseudopotential on this center.
   95          1
                                   No pseudopotential on this center.
   96          1
                                   No pseudopotential on this center.
   97          1
                                   No pseudopotential on this center.
 ======================================================================================================
 There are  2094 symmetry adapted cartesian basis functions of A   symmetry.
 There are  1845 symmetry adapted basis functions of A   symmetry.
  1845 basis functions,  2989 primitive gaussians,  2094 cartesian basis functions
   199 alpha electrons      198 beta electrons
       nuclear repulsion energy      8502.5269133900 Hartrees.
 NAtoms=   97 NActive=   97 NUniq=   97 SFac= 1.00D+00 NAtFMM=   60 NAOKFM=T Big=T
 Integral buffers will be    131072 words long.
 Raffenetti 2 integral format.
 Two-electron integral symmetry is turned on.
 Using the following non-standard input for PCM:
 Eps=4.5
 --- end of non-standard input.
 ------------------------------------------------------------------------------
 Polarizable Continuum Model (PCM)
 =================================
 Model                : PCM.
 Atomic radii         : UFF (Universal Force Field).
 Polarization charges : Total charges.
 Charge compensation  : None.
 Solution method      : On-the-fly selection.
 Cavity type          : Scaled VdW (van der Waals Surface) (Alpha=1.100).
 Cavity algorithm     : GePol (No added spheres)
                        Default sphere list used, NSphG=   97.
                        Lebedev-Laikov grids with approx.  5.0 points / Ang**2.
                        Smoothing algorithm: York/Karplus (Gamma=1.0000).
                        Polarization charges: spherical gaussians, with
                                              point-specific exponents (IZeta= 3).
                        Self-potential: point-specific (ISelfS= 7).
                        Self-field    : sphere-specific E.n sum rule (ISelfD= 2).
 Solvent              : Water, Eps=   4.500000 Eps(inf)=   1.777849
 ------------------------------------------------------------------------------
 One-electron integrals computed using PRISM.
   1 Symmetry operations used in ECPInt.
 ECPInt:  NShTT=  274911 NPrTT=  843013 LenC2=  204165 LenP2D=  409271.
 LDataN:  DoStor=T MaxTD1= 6 Len=  172
 NBasis=  1845 RedAO= T EigKep=  6.26D-06  NBF=  1845
 NBsUse=  1845 1.00D-06 EigRej= -1.00D+00 NBFU=  1845
 ExpMin= 2.40D-02 ExpMax= 6.95D+04 ExpMxC= 2.37D+03 IAcc=3 IRadAn=         5 AccDes= 0.00D+00
 Harris functional with IExCor= 1009 and IRadAn=       5 diagonalized for initial guess.
 HarFok:  IExCor= 1009 AccDes= 0.00D+00 IRadAn=         5 IDoV= 1 UseB2=F ITyADJ=14
 ICtDFT=  3500011 ScaDFX=  1.000000  1.000000  1.000000  1.000000
 FoFCou: FMM=F IPFlag=           0 FMFlag=      100000 FMFlg1=        2001
         NFxFlg=           0 DoJE=T BraDBF=F KetDBF=T FulRan=T
         wScrn=  0.000000 ICntrl=       500 IOpCl=  0 I1Cent=   200000004 NGrid=           0
         NMat0=    1 NMatS0=      1 NMatT0=    0 NMatD0=    1 NMtDS0=    0 NMtDT0=    0
 Petite list used in FoFCou.
 Initial guess <Sx>= 0.0000 <Sy>= 0.0000 <Sz>= 0.5000 <S**2>= 0.7500 S= 0.5000
 Requested convergence on RMS density matrix=1.00D-08 within 128 cycles.
 Requested convergence on MAX density matrix=1.00D-06.
 Requested convergence on             energy=1.00D-06.
 No special actions if energy rises.
 Inv3:  Mode=1 IEnd=   104890707.
 Iteration    1 A*A^-1 deviation from unit magnitude is 3.77D-15 for   3692.
 Iteration    1 A*A^-1 deviation from orthogonality  is 3.00D-15 for   4988   2537.
 Iteration    1 A^-1*A deviation from unit magnitude is 3.77D-15 for   3692.
 Iteration    1 A^-1*A deviation from orthogonality  is 2.22D-15 for   4923   2553.
 EnCoef did    12 forward-backward iterations
 EnCoef did     7 forward-backward iterations
 EnCoef did    18 forward-backward iterations
 EnCoef did    25 forward-backward iterations
 EnCoef did     5 forward-backward iterations
 EnCoef did     7 forward-backward iterations
 EnCoef did   100 forward-backward iterations
 EnCoef did   100 forward-backward iterations
 EnCoef did     2 forward-backward iterations
 EnCoef did     4 forward-backward iterations
 Restarting incremental Fock formation.
 Restarting incremental Fock formation.
 Error on total polarization charges =  0.01827
 SCF Done:  E(UM06L) =  -2834.18323499     A.U. after   43 cycles
            NFock= 43  Conv=0.20D-08     -V/T= 2.0518
 <Sx>= 0.0000 <Sy>= 0.0000 <Sz>= 0.5000 <S**2>= 0.8136 S= 0.5313
 <L.S>=  0.00000000000    
 Annihilation of the first spin contaminant:
 S**2 before annihilation     0.8136,   after     0.7516

 **********************************************************************

            Population analysis using the SCF Density.

 **********************************************************************

 Orbital symmetries:
 Alpha Orbitals:
       Occupied  (A) (A) (A) (A) (A) (A) (A) (A) (A) (A) (A) (A)
                 (A) (A) (A) (A) (A) (A) (A) (A) (A) (A) (A) (A)
                 (A) (A) (A) (A) (A) (A) (A) (A) (A) (A) (A) (A)
                 (A) (A) (A) (A) (A) (A) (A) (A) (A) (A) (A) (A)
                 (A) (A) (A) (A) (A) (A) (A) (A) (A) (A) (A) (A)
                 (A) (A) (A) (A) (A) (A) (A) (A) (A) (A) (A) (A)
                 (A) (A) (A) (A) (A) (A) (A) (A) (A) (A) (A) (A)
                 (A) (A) (A) (A) (A) (A) (A) (A) (A) (A) (A) (A)
                 (A) (A) (A) (A) (A) (A) (A) (A) (A) (A) (A) (A)
                 (A) (A) (A) (A) (A) (A) (A) (A) (A) (A) (A) (A)
                 (A) (A) (A) (A) (A) (A) (A) (A) (A) (A) (A) (A)
                 (A) (A) (A) (A) (A) (A) (A) (A) (A) (A) (A) (A)
                 (A) (A) (A) (A) (A) (A) (A) (A) (A) (A) (A) (A)
                 (A) (A) (A) (A) (A) (A) (A) (A) (A) (A) (A) (A)
                 (A) (A) (A) (A) (A) (A) (A) (A) (A) (A) (A) (A)
                 (A) (A) (A) (A) (A) (A) (A) (A) (A) (A) (A) (A)
                 (A) (A) (A) (A) (A) (A) (A)
       Virtual   (A) (A) (A) (A) (A) (A) (A) (A) (A) (A) (A) (A)
                 (A) (A) (A) (A) (A) (A) (A) (A) (A) (A) (A) (A)
                 (A) (A) (A) (A) (A) (A) (A) (A) (A) (A) (A) (A)
                 (A) (A) (A) (A) (A) (A) (A) (A) (A) (A) (A) (A)
                 (A) (A) (A) (A) (A) (A) (A) (A) (A) (A) (A) (A)
                 (A) (A) (A) (A) (A) (A) (A) (A) (A) (A) (A) (A)
                 (A) (A) (A) (A) (A) (A) (A) (A) (A) (A) (A) (A)
                 (A) (A) (A) (A) (A) (A) (A) (A) (A) (A) (A) (A)
                 (A) (A) (A) (A) (A) (A) (A) (A) (A) (A) (A) (A)
                 (A) (A) (A) (A) (A) (A) (A) (A) (A) (A) (A) (A)
                 (A) (A) (A) (A) (A) (A) (A) (A) (A) (A) (A) (A)
                 (A) (A) (A) (A) (A) (A) (A) (A) (A) (A) (A) (A)
                 (A) (A) (A) (A) (A) (A) (A) (A) (A) (A) (A) (A)
                 (A) (A) (A) (A) (A) (A) (A) (A) (A) (A) (A) (A)
                 (A) (A) (A) (A) (A) (A) (A) (A) (A) (A) (A) (A)
                 (A) (A) (A) (A) (A) (A) (A) (A) (A) (A) (A) (A)
                 (A) (A) (A) (A) (A) (A) (A) (A) (A) (A) (A) (A)
                 (A) (A) (A) (A) (A) (A) (A) (A) (A) (A) (A) (A)
                 (A) (A) (A) (A) (A) (A) (A) (A) (A) (A) (A) (A)
                 (A) (A) (A) (A) (A) (A) (A) (A) (A) (A) (A) (A)
                 (A) (A) (A) (A) (A) (A) (A) (A) (A) (A) (A) (A)
                 (A) (A) (A) (A) (A) (A) (A) (A) (A) (A) (A) (A)
                 (A) (A) (A) (A) (A) (A) (A) (A) (A) (A) (A) (A)
                 (A) (A) (A) (A) (A) (A) (A) (A) (A) (A) (A) (A)
                 (A) (A) (A) (A) (A) (A) (A) (A) (A) (A) (A) (A)
                 (A) (A) (A) (A) (A) (A) (A) (A) (A) (A) (A) (A)
                 (A) (A) (A) (A) (A) (A) (A) (A) (A) (A) (A) (A)
                 (A) (A) (A) (A) (A) (A) (A) (A) (A) (A) (A) (A)
                 (A) (A) (A) (A) (A) (A) (A) (A) (A) (A) (A) (A)
                 (A) (A) (A) (A) (A) (A) (A) (A) (A) (A) (A) (A)
                 (A) (A) (A) (A) (A) (A) (A) (A) (A) (A) (A) (A)
                 (A) (A) (A) (A) (A) (A) (A) (A) (A) (A) (A) (A)
                 (A) (A) (A) (A) (A) (A) (A) (A) (A) (A) (A) (A)
                 (A) (A) (A) (A) (A) (A) (A) (A) (A) (A) (A) (A)
                 (A) (A) (A) (A) (A) (A) (A) (A) (A) (A) (A) (A)
                 (A) (A) (A) (A) (A) (A) (A) (A) (A) (A) (A) (A)
                 (A) (A) (A) (A) (A) (A) (A) (A) (A) (A) (A) (A)
                 (A) (A) (A) (A) (A) (A) (A) (A) (A) (A) (A) (A)
                 (A) (A) (A) (A) (A) (A) (A) (A) (A) (A) (A) (A)
                 (A) (A) (A) (A) (A) (A) (A) (A) (A) (A) (A) (A)
                 (A) (A) (A) (A) (A) (A) (A) (A) (A) (A) (A) (A)
                 (A) (A) (A) (A) (A) (A) (A) (A) (A) (A) (A) (A)
                 (A) (A) (A) (A) (A) (A) (A) (A) (A) (A) (A) (A)
                 (A) (A) (A) (A) (A) (A) (A) (A) (A) (A) (A) (A)
                 (A) (A) (A) (A) (A) (A) (A) (A) (A) (A) (A) (A)
                 (A) (A) (A) (A) (A) (A) (A) (A) (A) (A) (A) (A)
                 (A) (A) (A) (A) (A) (A) (A) (A) (A) (A) (A) (A)
                 (A) (A) (A) (A) (A) (A) (A) (A) (A) (A) (A) (A)
                 (A) (A) (A) (A) (A) (A) (A) (A) (A) (A) (A) (A)
                 (A) (A) (A) (A) (A) (A) (A) (A) (A) (A) (A) (A)
                 (A) (A) (A) (A) (A) (A) (A) (A) (A) (A) (A) (A)
                 (A) (A) (A) (A) (A) (A) (A) (A) (A) (A) (A) (A)
                 (A) (A) (A) (A) (A) (A) (A) (A) (A) (A) (A) (A)
                 (A) (A) (A) (A) (A) (A) (A) (A) (A) (A) (A) (A)
                 (A) (A) (A) (A) (A) (A) (A) (A) (A) (A) (A) (A)
                 (A) (A) (A) (A) (A) (A) (A) (A) (A) (A) (A) (A)
                 (A) (A) (A) (A) (A) (A) (A) (A) (A) (A) (A) (A)
                 (A) (A) (A) (A) (A) (A) (A) (A) (A) (A) (A) (A)
                 (A) (A) (A) (A) (A) (A) (A) (A) (A) (A) (A) (A)
                 (A) (A) (A) (A) (A) (A) (A) (A) (A) (A) (A) (A)
                 (A) (A) (A) (A) (A) (A) (A) (A) (A) (A) (A) (A)
                 (A) (A) (A) (A) (A) (A) (A) (A) (A) (A) (A) (A)
                 (A) (A) (A) (A) (A) (A) (A) (A) (A) (A) (A) (A)
                 (A) (A) (A) (A) (A) (A) (A) (A) (A) (A) (A) (A)
                 (A) (A) (A) (A) (A) (A) (A) (A) (A) (A) (A) (A)
                 (A) (A) (A) (A) (A) (A) (A) (A) (A) (A) (A) (A)
                 (A) (A) (A) (A) (A) (A) (A) (A) (A) (A) (A) (A)
                 (A) (A) (A) (A) (A) (A) (A) (A) (A) (A) (A) (A)
                 (A) (A) (A) (A) (A) (A) (A) (A) (A) (A) (A) (A)
                 (A) (A) (A) (A) (A) (A) (A) (A) (A) (A) (A) (A)
                 (A) (A) (A) (A) (A) (A) (A) (A) (A) (A) (A) (A)
                 (A) (A) (A) (A) (A) (A) (A) (A) (A) (A) (A) (A)
                 (A) (A) (A) (A) (A) (A) (A) (A) (A) (A) (A) (A)
                 (A) (A) (A) (A) (A) (A) (A) (A) (A) (A) (A) (A)
                 (A) (A) (A) (A) (A) (A) (A) (A) (A) (A) (A) (A)
                 (A) (A) (A) (A) (A) (A) (A) (A) (A) (A) (A) (A)
                 (A) (A) (A) (A) (A) (A) (A) (A) (A) (A) (A) (A)
                 (A) (A) (A) (A) (A) (A) (A) (A) (A) (A) (A) (A)
                 (A) (A) (A) (A) (A) (A) (A) (A) (A) (A) (A) (A)
                 (A) (A) (A) (A) (A) (A) (A) (A) (A) (A) (A) (A)
                 (A) (A) (A) (A) (A) (A) (A) (A) (A) (A) (A) (A)
                 (A) (A) (A) (A) (A) (A) (A) (A) (A) (A) (A) (A)
                 (A) (A) (A) (A) (A) (A) (A) (A) (A) (A) (A) (A)
                 (A) (A) (A) (A) (A) (A) (A) (A) (A) (A) (A) (A)
                 (A) (A) (A) (A) (A) (A) (A) (A) (A) (A) (A) (A)
                 (A) (A) (A) (A) (A) (A) (A) (A) (A) (A) (A) (A)
                 (A) (A) (A) (A) (A) (A) (A) (A) (A) (A) (A) (A)
                 (A) (A) (A) (A) (A) (A) (A) (A) (A) (A) (A) (A)
                 (A) (A) (A) (A) (A) (A) (A) (A) (A) (A) (A) (A)
                 (A) (A) (A) (A) (A) (A) (A) (A) (A) (A) (A) (A)
                 (A) (A) (A) (A) (A) (A) (A) (A) (A) (A) (A) (A)
                 (A) (A) (A) (A) (A) (A) (A) (A) (A) (A) (A) (A)
                 (A) (A) (A) (A) (A) (A) (A) (A) (A) (A) (A) (A)
                 (A) (A) (A) (A) (A) (A) (A) (A) (A) (A) (A) (A)
                 (A) (A) (A) (A) (A) (A) (A) (A) (A) (A) (A) (A)
                 (A) (A) (A) (A) (A) (A) (A) (A) (A) (A) (A) (A)
                 (A) (A) (A) (A) (A) (A) (A) (A) (A) (A) (A) (A)
                 (A) (A) (A) (A) (A) (A) (A) (A) (A) (A) (A) (A)
                 (A) (A) (A) (A) (A) (A) (A) (A) (A) (A) (A) (A)
                 (A) (A) (A) (A) (A) (A) (A) (A) (A) (A) (A) (A)
                 (A) (A) (A) (A) (A) (A) (A) (A) (A) (A) (A) (A)
                 (A) (A) (A) (A) (A) (A) (A) (A) (A) (A) (A) (A)
                 (A) (A) (A) (A) (A) (A) (A) (A) (A) (A) (A) (A)
                 (A) (A) (A) (A) (A) (A) (A) (A) (A) (A) (A) (A)
                 (A) (A) (A) (A) (A) (A) (A) (A) (A) (A) (A) (A)
                 (A) (A) (A) (A) (A) (A) (A) (A) (A) (A) (A) (A)
                 (A) (A) (A) (A) (A) (A) (A) (A) (A) (A) (A) (A)
                 (A) (A) (A) (A) (A) (A) (A) (A) (A) (A) (A) (A)
                 (A) (A) (A) (A) (A) (A) (A) (A) (A) (A) (A) (A)
                 (A) (A) (A) (A) (A) (A) (A) (A) (A) (A) (A) (A)
                 (A) (A) (A) (A) (A) (A) (A) (A) (A) (A) (A) (A)
                 (A) (A) (A) (A) (A) (A) (A) (A) (A) (A) (A) (A)
                 (A) (A) (A) (A) (A) (A) (A) (A) (A) (A) (A) (A)
                 (A) (A) (A) (A) (A) (A) (A) (A) (A) (A) (A) (A)
                 (A) (A) (A) (A) (A) (A) (A) (A) (A) (A) (A) (A)
                 (A) (A) (A) (A) (A) (A) (A) (A) (A) (A) (A) (A)
                 (A) (A) (A) (A) (A) (A) (A) (A) (A) (A) (A) (A)
                 (A) (A) (A) (A) (A) (A) (A) (A) (A) (A) (A) (A)
                 (A) (A) (A) (A) (A) (A) (A) (A) (A) (A) (A) (A)
                 (A) (A) (A) (A) (A) (A) (A) (A) (A) (A) (A) (A)
                 (A) (A) (A) (A) (A) (A) (A) (A) (A) (A) (A) (A)
                 (A) (A) (A) (A) (A) (A) (A) (A) (A) (A) (A) (A)
                 (A) (A) (A) (A) (A) (A) (A) (A) (A) (A) (A) (A)
                 (A) (A) (A) (A) (A) (A) (A) (A) (A) (A) (A) (A)
                 (A) (A) (A) (A) (A) (A) (A) (A) (A) (A) (A) (A)
                 (A) (A) (A) (A) (A) (A) (A) (A) (A) (A) (A) (A)
                 (A) (A) (A) (A) (A) (A) (A) (A) (A) (A) (A) (A)
                 (A) (A) (A) (A) (A) (A) (A) (A) (A) (A) (A) (A)
                 (A) (A) (A) (A) (A) (A) (A) (A) (A) (A) (A) (A)
                 (A) (A) (A) (A) (A) (A) (A) (A) (A) (A) (A) (A)
                 (A) (A) (A) (A) (A) (A) (A) (A) (A) (A) (A) (A)
                 (A) (A) (A) (A) (A) (A) (A) (A) (A) (A) (A) (A)
                 (A) (A) (A) (A) (A) (A) (A) (A) (A) (A) (A) (A)
                 (A) (A) (A) (A) (A) (A) (A) (A) (A) (A) (A) (A)
                 (A) (A) (A) (A) (A) (A) (A) (A) (A) (A) (A) (A)
                 (A) (A) (A) (A) (A) (A) (A) (A) (A) (A) (A) (A)
                 (A) (A) (A) (A) (A) (A) (A) (A) (A) (A) (A) (A)
                 (A) (A)
 Beta  Orbitals:
       Occupied  (A) (A) (A) (A) (A) (A) (A) (A) (A) (A) (A) (A)
                 (A) (A) (A) (A) (A) (A) (A) (A) (A) (A) (A) (A)
                 (A) (A) (A) (A) (A) (A) (A) (A) (A) (A) (A) (A)
                 (A) (A) (A) (A) (A) (A) (A) (A) (A) (A) (A) (A)
                 (A) (A) (A) (A) (A) (A) (A) (A) (A) (A) (A) (A)
                 (A) (A) (A) (A) (A) (A) (A) (A) (A) (A) (A) (A)
                 (A) (A) (A) (A) (A) (A) (A) (A) (A) (A) (A) (A)
                 (A) (A) (A) (A) (A) (A) (A) (A) (A) (A) (A) (A)
                 (A) (A) (A) (A) (A) (A) (A) (A) (A) (A) (A) (A)
                 (A) (A) (A) (A) (A) (A) (A) (A) (A) (A) (A) (A)
                 (A) (A) (A) (A) (A) (A) (A) (A) (A) (A) (A) (A)
                 (A) (A) (A) (A) (A) (A) (A) (A) (A) (A) (A) (A)
                 (A) (A) (A) (A) (A) (A) (A) (A) (A) (A) (A) (A)
                 (A) (A) (A) (A) (A) (A) (A) (A) (A) (A) (A) (A)
                 (A) (A) (A) (A) (A) (A) (A) (A) (A) (A) (A) (A)
                 (A) (A) (A) (A) (A) (A) (A) (A) (A) (A) (A) (A)
                 (A) (A) (A) (A) (A) (A)
       Virtual   (A) (A) (A) (A) (A) (A) (A) (A) (A) (A) (A) (A)
                 (A) (A) (A) (A) (A) (A) (A) (A) (A) (A) (A) (A)
                 (A) (A) (A) (A) (A) (A) (A) (A) (A) (A) (A) (A)
                 (A) (A) (A) (A) (A) (A) (A) (A) (A) (A) (A) (A)
                 (A) (A) (A) (A) (A) (A) (A) (A) (A) (A) (A) (A)
                 (A) (A) (A) (A) (A) (A) (A) (A) (A) (A) (A) (A)
                 (A) (A) (A) (A) (A) (A) (A) (A) (A) (A) (A) (A)
                 (A) (A) (A) (A) (A) (A) (A) (A) (A) (A) (A) (A)
                 (A) (A) (A) (A) (A) (A) (A) (A) (A) (A) (A) (A)
                 (A) (A) (A) (A) (A) (A) (A) (A) (A) (A) (A) (A)
                 (A) (A) (A) (A) (A) (A) (A) (A) (A) (A) (A) (A)
                 (A) (A) (A) (A) (A) (A) (A) (A) (A) (A) (A) (A)
                 (A) (A) (A) (A) (A) (A) (A) (A) (A) (A) (A) (A)
                 (A) (A) (A) (A) (A) (A) (A) (A) (A) (A) (A) (A)
                 (A) (A) (A) (A) (A) (A) (A) (A) (A) (A) (A) (A)
                 (A) (A) (A) (A) (A) (A) (A) (A) (A) (A) (A) (A)
                 (A) (A) (A) (A) (A) (A) (A) (A) (A) (A) (A) (A)
                 (A) (A) (A) (A) (A) (A) (A) (A) (A) (A) (A) (A)
                 (A) (A) (A) (A) (A) (A) (A) (A) (A) (A) (A) (A)
                 (A) (A) (A) (A) (A) (A) (A) (A) (A) (A) (A) (A)
                 (A) (A) (A) (A) (A) (A) (A) (A) (A) (A) (A) (A)
                 (A) (A) (A) (A) (A) (A) (A) (A) (A) (A) (A) (A)
                 (A) (A) (A) (A) (A) (A) (A) (A) (A) (A) (A) (A)
                 (A) (A) (A) (A) (A) (A) (A) (A) (A) (A) (A) (A)
                 (A) (A) (A) (A) (A) (A) (A) (A) (A) (A) (A) (A)
                 (A) (A) (A) (A) (A) (A) (A) (A) (A) (A) (A) (A)
                 (A) (A) (A) (A) (A) (A) (A) (A) (A) (A) (A) (A)
                 (A) (A) (A) (A) (A) (A) (A) (A) (A) (A) (A) (A)
                 (A) (A) (A) (A) (A) (A) (A) (A) (A) (A) (A) (A)
                 (A) (A) (A) (A) (A) (A) (A) (A) (A) (A) (A) (A)
                 (A) (A) (A) (A) (A) (A) (A) (A) (A) (A) (A) (A)
                 (A) (A) (A) (A) (A) (A) (A) (A) (A) (A) (A) (A)
                 (A) (A) (A) (A) (A) (A) (A) (A) (A) (A) (A) (A)
                 (A) (A) (A) (A) (A) (A) (A) (A) (A) (A) (A) (A)
                 (A) (A) (A) (A) (A) (A) (A) (A) (A) (A) (A) (A)
                 (A) (A) (A) (A) (A) (A) (A) (A) (A) (A) (A) (A)
                 (A) (A) (A) (A) (A) (A) (A) (A) (A) (A) (A) (A)
                 (A) (A) (A) (A) (A) (A) (A) (A) (A) (A) (A) (A)
                 (A) (A) (A) (A) (A) (A) (A) (A) (A) (A) (A) (A)
                 (A) (A) (A) (A) (A) (A) (A) (A) (A) (A) (A) (A)
                 (A) (A) (A) (A) (A) (A) (A) (A) (A) (A) (A) (A)
                 (A) (A) (A) (A) (A) (A) (A) (A) (A) (A) (A) (A)
                 (A) (A) (A) (A) (A) (A) (A) (A) (A) (A) (A) (A)
                 (A) (A) (A) (A) (A) (A) (A) (A) (A) (A) (A) (A)
                 (A) (A) (A) (A) (A) (A) (A) (A) (A) (A) (A) (A)
                 (A) (A) (A) (A) (A) (A) (A) (A) (A) (A) (A) (A)
                 (A) (A) (A) (A) (A) (A) (A) (A) (A) (A) (A) (A)
                 (A) (A) (A) (A) (A) (A) (A) (A) (A) (A) (A) (A)
                 (A) (A) (A) (A) (A) (A) (A) (A) (A) (A) (A) (A)
                 (A) (A) (A) (A) (A) (A) (A) (A) (A) (A) (A) (A)
                 (A) (A) (A) (A) (A) (A) (A) (A) (A) (A) (A) (A)
                 (A) (A) (A) (A) (A) (A) (A) (A) (A) (A) (A) (A)
                 (A) (A) (A) (A) (A) (A) (A) (A) (A) (A) (A) (A)
                 (A) (A) (A) (A) (A) (A) (A) (A) (A) (A) (A) (A)
                 (A) (A) (A) (A) (A) (A) (A) (A) (A) (A) (A) (A)
                 (A) (A) (A) (A) (A) (A) (A) (A) (A) (A) (A) (A)
                 (A) (A) (A) (A) (A) (A) (A) (A) (A) (A) (A) (A)
                 (A) (A) (A) (A) (A) (A) (A) (A) (A) (A) (A) (A)
                 (A) (A) (A) (A) (A) (A) (A) (A) (A) (A) (A) (A)
                 (A) (A) (A) (A) (A) (A) (A) (A) (A) (A) (A) (A)
                 (A) (A) (A) (A) (A) (A) (A) (A) (A) (A) (A) (A)
                 (A) (A) (A) (A) (A) (A) (A) (A) (A) (A) (A) (A)
                 (A) (A) (A) (A) (A) (A) (A) (A) (A) (A) (A) (A)
                 (A) (A) (A) (A) (A) (A) (A) (A) (A) (A) (A) (A)
                 (A) (A) (A) (A) (A) (A) (A) (A) (A) (A) (A) (A)
                 (A) (A) (A) (A) (A) (A) (A) (A) (A) (A) (A) (A)
                 (A) (A) (A) (A) (A) (A) (A) (A) (A) (A) (A) (A)
                 (A) (A) (A) (A) (A) (A) (A) (A) (A) (A) (A) (A)
                 (A) (A) (A) (A) (A) (A) (A) (A) (A) (A) (A) (A)
                 (A) (A) (A) (A) (A) (A) (A) (A) (A) (A) (A) (A)
                 (A) (A) (A) (A) (A) (A) (A) (A) (A) (A) (A) (A)
                 (A) (A) (A) (A) (A) (A) (A) (A) (A) (A) (A) (A)
                 (A) (A) (A) (A) (A) (A) (A) (A) (A) (A) (A) (A)
                 (A) (A) (A) (A) (A) (A) (A) (A) (A) (A) (A) (A)
                 (A) (A) (A) (A) (A) (A) (A) (A) (A) (A) (A) (A)
                 (A) (A) (A) (A) (A) (A) (A) (A) (A) (A) (A) (A)
                 (A) (A) (A) (A) (A) (A) (A) (A) (A) (A) (A) (A)
                 (A) (A) (A) (A) (A) (A) (A) (A) (A) (A) (A) (A)
                 (A) (A) (A) (A) (A) (A) (A) (A) (A) (A) (A) (A)
                 (A) (A) (A) (A) (A) (A) (A) (A) (A) (A) (A) (A)
                 (A) (A) (A) (A) (A) (A) (A) (A) (A) (A) (A) (A)
                 (A) (A) (A) (A) (A) (A) (A) (A) (A) (A) (A) (A)
                 (A) (A) (A) (A) (A) (A) (A) (A) (A) (A) (A) (A)
                 (A) (A) (A) (A) (A) (A) (A) (A) (A) (A) (A) (A)
                 (A) (A) (A) (A) (A) (A) (A) (A) (A) (A) (A) (A)
                 (A) (A) (A) (A) (A) (A) (A) (A) (A) (A) (A) (A)
                 (A) (A) (A) (A) (A) (A) (A) (A) (A) (A) (A) (A)
                 (A) (A) (A) (A) (A) (A) (A) (A) (A) (A) (A) (A)
                 (A) (A) (A) (A) (A) (A) (A) (A) (A) (A) (A) (A)
                 (A) (A) (A) (A) (A) (A) (A) (A) (A) (A) (A) (A)
                 (A) (A) (A) (A) (A) (A) (A) (A) (A) (A) (A) (A)
                 (A) (A) (A) (A) (A) (A) (A) (A) (A) (A) (A) (A)
                 (A) (A) (A) (A) (A) (A) (A) (A) (A) (A) (A) (A)
                 (A) (A) (A) (A) (A) (A) (A) (A) (A) (A) (A) (A)
                 (A) (A) (A) (A) (A) (A) (A) (A) (A) (A) (A) (A)
                 (A) (A) (A) (A) (A) (A) (A) (A) (A) (A) (A) (A)
                 (A) (A) (A) (A) (A) (A) (A) (A) (A) (A) (A) (A)
                 (A) (A) (A) (A) (A) (A) (A) (A) (A) (A) (A) (A)
                 (A) (A) (A) (A) (A) (A) (A) (A) (A) (A) (A) (A)
                 (A) (A) (A) (A) (A) (A) (A) (A) (A) (A) (A) (A)
                 (A) (A) (A) (A) (A) (A) (A) (A) (A) (A) (A) (A)
                 (A) (A) (A) (A) (A) (A) (A) (A) (A) (A) (A) (A)
                 (A) (A) (A) (A) (A) (A) (A) (A) (A) (A) (A) (A)
                 (A) (A) (A) (A) (A) (A) (A) (A) (A) (A) (A) (A)
                 (A) (A) (A) (A) (A) (A) (A) (A) (A) (A) (A) (A)
                 (A) (A) (A) (A) (A) (A) (A) (A) (A) (A) (A) (A)
                 (A) (A) (A) (A) (A) (A) (A) (A) (A) (A) (A) (A)
                 (A) (A) (A) (A) (A) (A) (A) (A) (A) (A) (A) (A)
                 (A) (A) (A) (A) (A) (A) (A) (A) (A) (A) (A) (A)
                 (A) (A) (A) (A) (A) (A) (A) (A) (A) (A) (A) (A)
                 (A) (A) (A) (A) (A) (A) (A) (A) (A) (A) (A) (A)
                 (A) (A) (A) (A) (A) (A) (A) (A) (A) (A) (A) (A)
                 (A) (A) (A) (A) (A) (A) (A) (A) (A) (A) (A) (A)
                 (A) (A) (A) (A) (A) (A) (A) (A) (A) (A) (A) (A)
                 (A) (A) (A) (A) (A) (A) (A) (A) (A) (A) (A) (A)
                 (A) (A) (A) (A) (A) (A) (A) (A) (A) (A) (A) (A)
                 (A) (A) (A) (A) (A) (A) (A) (A) (A) (A) (A) (A)
                 (A) (A) (A) (A) (A) (A) (A) (A) (A) (A) (A) (A)
                 (A) (A) (A) (A) (A) (A) (A) (A) (A) (A) (A) (A)
                 (A) (A) (A) (A) (A) (A) (A) (A) (A) (A) (A) (A)
                 (A) (A) (A) (A) (A) (A) (A) (A) (A) (A) (A) (A)
                 (A) (A) (A) (A) (A) (A) (A) (A) (A) (A) (A) (A)
                 (A) (A) (A) (A) (A) (A) (A) (A) (A) (A) (A) (A)
                 (A) (A) (A) (A) (A) (A) (A) (A) (A) (A) (A) (A)
                 (A) (A) (A) (A) (A) (A) (A) (A) (A) (A) (A) (A)
                 (A) (A) (A) (A) (A) (A) (A) (A) (A) (A) (A) (A)
                 (A) (A) (A) (A) (A) (A) (A) (A) (A) (A) (A) (A)
                 (A) (A) (A) (A) (A) (A) (A) (A) (A) (A) (A) (A)
                 (A) (A) (A) (A) (A) (A) (A) (A) (A) (A) (A) (A)
                 (A) (A) (A) (A) (A) (A) (A) (A) (A) (A) (A) (A)
                 (A) (A) (A) (A) (A) (A) (A) (A) (A) (A) (A) (A)
                 (A) (A) (A) (A) (A) (A) (A) (A) (A) (A) (A) (A)
                 (A) (A) (A) (A) (A) (A) (A) (A) (A) (A) (A) (A)
                 (A) (A) (A) (A) (A) (A) (A) (A) (A) (A) (A) (A)
                 (A) (A) (A) (A) (A) (A) (A) (A) (A) (A) (A) (A)
                 (A) (A) (A) (A) (A) (A) (A) (A) (A) (A) (A) (A)
                 (A) (A) (A) (A) (A) (A) (A) (A) (A) (A) (A) (A)
                 (A) (A) (A)
 The electronic state is 2-A.
 Alpha  occ. eigenvalues -- -101.07412 -19.02510 -19.01703 -19.00475 -14.20149
 Alpha  occ. eigenvalues --  -14.20136 -14.19109 -14.17508 -10.15546 -10.15098
 Alpha  occ. eigenvalues --  -10.13579 -10.12547 -10.11574 -10.11544 -10.10861
 Alpha  occ. eigenvalues --  -10.10799 -10.10655 -10.10334 -10.09390 -10.08760
 Alpha  occ. eigenvalues --  -10.08188 -10.07992 -10.07848 -10.07580 -10.07416
 Alpha  occ. eigenvalues --  -10.07328 -10.07295 -10.07282 -10.07242 -10.07002
 Alpha  occ. eigenvalues --  -10.06986 -10.06310 -10.06254 -10.06231 -10.06198
 Alpha  occ. eigenvalues --  -10.06160 -10.06113 -10.05740 -10.05509 -10.05319
 Alpha  occ. eigenvalues --  -10.05219 -10.04954 -10.04933 -10.04810 -10.04560
 Alpha  occ. eigenvalues --  -10.04472 -10.04386 -10.04266 -10.04057  -9.30410
 Alpha  occ. eigenvalues --   -7.00803  -7.00535  -7.00512  -3.99814  -3.99426
 Alpha  occ. eigenvalues --   -2.60009  -2.59532  -2.58913  -2.58746  -2.56869
 Alpha  occ. eigenvalues --   -2.56140  -1.07642  -1.06757  -1.04093  -0.95324
 Alpha  occ. eigenvalues --   -0.90636  -0.88347  -0.87298  -0.82435  -0.81385
 Alpha  occ. eigenvalues --   -0.79715  -0.79376  -0.78709  -0.78615  -0.76048
 Alpha  occ. eigenvalues --   -0.75006  -0.74356  -0.73432  -0.72829  -0.71315
 Alpha  occ. eigenvalues --   -0.71129  -0.70437  -0.68975  -0.68270  -0.67357
 Alpha  occ. eigenvalues --   -0.65757  -0.65111  -0.65018  -0.64968  -0.64797
 Alpha  occ. eigenvalues --   -0.64480  -0.63179  -0.61372  -0.61268  -0.60717
 Alpha  occ. eigenvalues --   -0.58825  -0.57349  -0.57271  -0.56411  -0.56249
 Alpha  occ. eigenvalues --   -0.55605  -0.55316  -0.52490  -0.51273  -0.50418
 Alpha  occ. eigenvalues --   -0.50365  -0.50145  -0.49293  -0.49095  -0.48659
 Alpha  occ. eigenvalues --   -0.47706  -0.47165  -0.46612  -0.46194  -0.45647
 Alpha  occ. eigenvalues --   -0.45002  -0.44614  -0.43217  -0.43150  -0.42945
 Alpha  occ. eigenvalues --   -0.42744  -0.42513  -0.42056  -0.41903  -0.41755
 Alpha  occ. eigenvalues --   -0.41309  -0.41070  -0.40862  -0.40757  -0.40490
 Alpha  occ. eigenvalues --   -0.39916  -0.39790  -0.39652  -0.39250  -0.38816
 Alpha  occ. eigenvalues --   -0.38687  -0.38643  -0.38245  -0.37802  -0.37681
 Alpha  occ. eigenvalues --   -0.37549  -0.37252  -0.36769  -0.35924  -0.35653
 Alpha  occ. eigenvalues --   -0.35372  -0.35156  -0.34963  -0.34871  -0.34772
 Alpha  occ. eigenvalues --   -0.34652  -0.34161  -0.34053  -0.33932  -0.33812
 Alpha  occ. eigenvalues --   -0.33545  -0.33281  -0.33206  -0.33006  -0.32747
 Alpha  occ. eigenvalues --   -0.32516  -0.32152  -0.32016  -0.31887  -0.31481
 Alpha  occ. eigenvalues --   -0.31088  -0.30852  -0.30665  -0.30460  -0.30352
 Alpha  occ. eigenvalues --   -0.30134  -0.29616  -0.29504  -0.29474  -0.29186
 Alpha  occ. eigenvalues --   -0.28494  -0.27333  -0.26645  -0.26090  -0.25976
 Alpha  occ. eigenvalues --   -0.25035  -0.24619  -0.23927  -0.23775  -0.23400
 Alpha  occ. eigenvalues --   -0.23128  -0.22975  -0.22278  -0.22001  -0.21725
 Alpha  occ. eigenvalues --   -0.20721  -0.20549  -0.20376  -0.19252  -0.18986
 Alpha  occ. eigenvalues --   -0.18338  -0.17261  -0.15629  -0.13521
 Alpha virt. eigenvalues --   -0.11589  -0.09378  -0.08873  -0.06975  -0.04881
 Alpha virt. eigenvalues --   -0.04353  -0.04103  -0.03821  -0.03478  -0.02044
 Alpha virt. eigenvalues --    0.00513   0.01459   0.01637   0.01971   0.02262
 Alpha virt. eigenvalues --    0.02424   0.03213   0.03707   0.03909   0.04601
 Alpha virt. eigenvalues --    0.04912   0.04973   0.05419   0.05650   0.05926
 Alpha virt. eigenvalues --    0.06179   0.06253   0.06609   0.06863   0.07133
 Alpha virt. eigenvalues --    0.07242   0.07539   0.07743   0.07929   0.08384
 Alpha virt. eigenvalues --    0.08440   0.09069   0.09298   0.09422   0.09499
 Alpha virt. eigenvalues --    0.09858   0.09907   0.10144   0.10366   0.10488
 Alpha virt. eigenvalues --    0.10616   0.11046   0.11223   0.11404   0.11465
 Alpha virt. eigenvalues --    0.11728   0.11833   0.12185   0.12331   0.12432
 Alpha virt. eigenvalues --    0.12485   0.12579   0.12733   0.13028   0.13202
 Alpha virt. eigenvalues --    0.13362   0.13610   0.13794   0.14006   0.14116
 Alpha virt. eigenvalues --    0.14570   0.14651   0.14758   0.14988   0.15293
 Alpha virt. eigenvalues --    0.15390   0.15484   0.15725   0.16089   0.16424
 Alpha virt. eigenvalues --    0.16481   0.16677   0.16889   0.17031   0.17436
 Alpha virt. eigenvalues --    0.17608   0.17912   0.18168   0.18290   0.18586
 Alpha virt. eigenvalues --    0.18688   0.18965   0.19086   0.19539   0.19688
 Alpha virt. eigenvalues --    0.19854   0.20140   0.20572   0.20715   0.20952
 Alpha virt. eigenvalues --    0.21162   0.21420   0.21544   0.21735   0.21814
 Alpha virt. eigenvalues --    0.22229   0.22597   0.22641   0.22874   0.23012
 Alpha virt. eigenvalues --    0.23150   0.23273   0.23394   0.23480   0.23652
 Alpha virt. eigenvalues --    0.24170   0.24328   0.24689   0.24804   0.24902
 Alpha virt. eigenvalues --    0.25019   0.25280   0.25492   0.25702   0.25743
 Alpha virt. eigenvalues --    0.25896   0.26002   0.26394   0.26587   0.26891
 Alpha virt. eigenvalues --    0.27035   0.27272   0.27343   0.27693   0.27850
 Alpha virt. eigenvalues --    0.27993   0.28128   0.28356   0.28414   0.28504
 Alpha virt. eigenvalues --    0.28590   0.29166   0.29387   0.29504   0.29581
 Alpha virt. eigenvalues --    0.29829   0.30026   0.30249   0.30463   0.30685
 Alpha virt. eigenvalues --    0.30742   0.30861   0.30902   0.31444   0.31778
 Alpha virt. eigenvalues --    0.31829   0.32148   0.32276   0.32552   0.32821
 Alpha virt. eigenvalues --    0.32863   0.33132   0.33231   0.33528   0.33681
 Alpha virt. eigenvalues --    0.33862   0.34065   0.34243   0.34542   0.34633
 Alpha virt. eigenvalues --    0.34823   0.35080   0.35285   0.35354   0.35428
 Alpha virt. eigenvalues --    0.35636   0.35818   0.35949   0.36071   0.36287
 Alpha virt. eigenvalues --    0.36322   0.36443   0.36718   0.36826   0.36987
 Alpha virt. eigenvalues --    0.37194   0.37419   0.37582   0.37765   0.38035
 Alpha virt. eigenvalues --    0.38139   0.38200   0.38376   0.38564   0.38738
 Alpha virt. eigenvalues --    0.38994   0.39188   0.39469   0.39572   0.39728
 Alpha virt. eigenvalues --    0.39806   0.39862   0.39992   0.40269   0.40448
 Alpha virt. eigenvalues --    0.40646   0.40850   0.40994   0.41025   0.41268
 Alpha virt. eigenvalues --    0.41730   0.41903   0.42036   0.42203   0.42630
 Alpha virt. eigenvalues --    0.42724   0.42799   0.42920   0.43113   0.43266
 Alpha virt. eigenvalues --    0.43378   0.43450   0.43677   0.43841   0.44034
 Alpha virt. eigenvalues --    0.44222   0.44257   0.44392   0.44494   0.44718
 Alpha virt. eigenvalues --    0.44851   0.44935   0.45051   0.45221   0.45385
 Alpha virt. eigenvalues --    0.45554   0.45678   0.45800   0.46096   0.46237
 Alpha virt. eigenvalues --    0.46336   0.46454   0.46680   0.46846   0.47201
 Alpha virt. eigenvalues --    0.47380   0.47468   0.47733   0.47814   0.48176
 Alpha virt. eigenvalues --    0.48438   0.48602   0.48736   0.48923   0.49083
 Alpha virt. eigenvalues --    0.49256   0.49634   0.49922   0.49989   0.50279
 Alpha virt. eigenvalues --    0.50502   0.50730   0.51179   0.51234   0.51516
 Alpha virt. eigenvalues --    0.51774   0.52027   0.52133   0.52562   0.52800
 Alpha virt. eigenvalues --    0.53060   0.53184   0.53785   0.53895   0.54144
 Alpha virt. eigenvalues --    0.54338   0.54612   0.55199   0.55477   0.55798
 Alpha virt. eigenvalues --    0.56171   0.56341   0.56483   0.56534   0.56991
 Alpha virt. eigenvalues --    0.57443   0.57818   0.57860   0.58239   0.58458
 Alpha virt. eigenvalues --    0.58503   0.59132   0.59486   0.59881   0.60035
 Alpha virt. eigenvalues --    0.60186   0.60561   0.60580   0.60840   0.61049
 Alpha virt. eigenvalues --    0.61271   0.61357   0.61808   0.62040   0.62250
 Alpha virt. eigenvalues --    0.62920   0.63233   0.63519   0.63735   0.63844
 Alpha virt. eigenvalues --    0.64190   0.64327   0.64479   0.64857   0.65032
 Alpha virt. eigenvalues --    0.65282   0.65822   0.65950   0.66127   0.66164
 Alpha virt. eigenvalues --    0.66593   0.66705   0.66846   0.67357   0.67590
 Alpha virt. eigenvalues --    0.67755   0.68158   0.68287   0.68519   0.68951
 Alpha virt. eigenvalues --    0.69057   0.69461   0.69803   0.70059   0.70251
 Alpha virt. eigenvalues --    0.70303   0.70615   0.71164   0.71313   0.71440
 Alpha virt. eigenvalues --    0.71704   0.72014   0.72115   0.72595   0.72774
 Alpha virt. eigenvalues --    0.72900   0.73382   0.73531   0.73703   0.74154
 Alpha virt. eigenvalues --    0.74323   0.74545   0.74690   0.74915   0.75215
 Alpha virt. eigenvalues --    0.75495   0.75724   0.75979   0.76422   0.76617
 Alpha virt. eigenvalues --    0.77179   0.77407   0.77795   0.77979   0.78371
 Alpha virt. eigenvalues --    0.78659   0.78847   0.78971   0.79160   0.79558
 Alpha virt. eigenvalues --    0.79821   0.80199   0.80704   0.80933   0.81068
 Alpha virt. eigenvalues --    0.81503   0.81652   0.81943   0.82280   0.82395
 Alpha virt. eigenvalues --    0.82701   0.83094   0.83192   0.83323   0.83873
 Alpha virt. eigenvalues --    0.83997   0.84352   0.84580   0.84977   0.85129
 Alpha virt. eigenvalues --    0.85308   0.85702   0.85999   0.86190   0.86425
 Alpha virt. eigenvalues --    0.86816   0.87348   0.87610   0.87689   0.87847
 Alpha virt. eigenvalues --    0.88159   0.88734   0.88870   0.89022   0.89331
 Alpha virt. eigenvalues --    0.89909   0.90000   0.90125   0.90276   0.90742
 Alpha virt. eigenvalues --    0.91115   0.91304   0.91491   0.91800   0.91976
 Alpha virt. eigenvalues --    0.92576   0.92790   0.93158   0.93589   0.93842
 Alpha virt. eigenvalues --    0.94219   0.94592   0.95338   0.95853   0.95899
 Alpha virt. eigenvalues --    0.96301   0.96413   0.96817   0.97441   0.97680
 Alpha virt. eigenvalues --    0.98022   0.98299   0.98886   0.98952   0.99403
 Alpha virt. eigenvalues --    0.99837   1.00321   1.00387   1.00977   1.01608
 Alpha virt. eigenvalues --    1.01722   1.02346   1.02602   1.02843   1.03020
 Alpha virt. eigenvalues --    1.03452   1.03989   1.04337   1.04553   1.04661
 Alpha virt. eigenvalues --    1.04817   1.05401   1.05880   1.06148   1.06647
 Alpha virt. eigenvalues --    1.06748   1.07041   1.07366   1.07510   1.07642
 Alpha virt. eigenvalues --    1.08061   1.08182   1.08425   1.08797   1.09419
 Alpha virt. eigenvalues --    1.09589   1.10196   1.10243   1.10524   1.11181
 Alpha virt. eigenvalues --    1.11377   1.11724   1.11896   1.12103   1.12580
 Alpha virt. eigenvalues --    1.13147   1.13277   1.13658   1.13875   1.14199
 Alpha virt. eigenvalues --    1.14475   1.14834   1.15133   1.15615   1.16040
 Alpha virt. eigenvalues --    1.16315   1.16359   1.16815   1.17018   1.17668
 Alpha virt. eigenvalues --    1.17954   1.18081   1.18498   1.18885   1.18925
 Alpha virt. eigenvalues --    1.19212   1.19732   1.19883   1.20238   1.20508
 Alpha virt. eigenvalues --    1.20718   1.21138   1.21383   1.21832   1.22476
 Alpha virt. eigenvalues --    1.22741   1.22818   1.23407   1.23667   1.24105
 Alpha virt. eigenvalues --    1.24352   1.24667   1.24919   1.25494   1.25594
 Alpha virt. eigenvalues --    1.25840   1.26186   1.26485   1.26564   1.27118
 Alpha virt. eigenvalues --    1.27150   1.27356   1.28026   1.28232   1.28667
 Alpha virt. eigenvalues --    1.28997   1.29196   1.29381   1.30002   1.30506
 Alpha virt. eigenvalues --    1.30540   1.30669   1.31078   1.31624   1.31952
 Alpha virt. eigenvalues --    1.32553   1.33148   1.33269   1.33960   1.34117
 Alpha virt. eigenvalues --    1.34359   1.35152   1.35245   1.35820   1.36070
 Alpha virt. eigenvalues --    1.36169   1.36921   1.37139   1.37418   1.38087
 Alpha virt. eigenvalues --    1.38480   1.38657   1.39537   1.39718   1.39981
 Alpha virt. eigenvalues --    1.40878   1.41213   1.41390   1.41654   1.42105
 Alpha virt. eigenvalues --    1.42376   1.43284   1.43721   1.44412   1.44510
 Alpha virt. eigenvalues --    1.44581   1.45238   1.45498   1.45968   1.46260
 Alpha virt. eigenvalues --    1.46356   1.46779   1.46829   1.47243   1.47510
 Alpha virt. eigenvalues --    1.47774   1.48396   1.48742   1.48918   1.49420
 Alpha virt. eigenvalues --    1.49539   1.49792   1.49985   1.50478   1.50619
 Alpha virt. eigenvalues --    1.51480   1.51645   1.51892   1.52332   1.52614
 Alpha virt. eigenvalues --    1.52996   1.53313   1.53633   1.53764   1.54387
 Alpha virt. eigenvalues --    1.54575   1.54697   1.55067   1.55173   1.55317
 Alpha virt. eigenvalues --    1.55969   1.56167   1.56453   1.56594   1.56787
 Alpha virt. eigenvalues --    1.57065   1.57386   1.57777   1.58442   1.58590
 Alpha virt. eigenvalues --    1.58798   1.59221   1.59271   1.59370   1.59721
 Alpha virt. eigenvalues --    1.59744   1.60129   1.60249   1.60624   1.60729
 Alpha virt. eigenvalues --    1.61024   1.61203   1.61390   1.61673   1.62007
 Alpha virt. eigenvalues --    1.62102   1.62388   1.62855   1.63063   1.63279
 Alpha virt. eigenvalues --    1.63516   1.63908   1.64400   1.64825   1.64962
 Alpha virt. eigenvalues --    1.65117   1.65361   1.65716   1.65810   1.66242
 Alpha virt. eigenvalues --    1.66873   1.66907   1.66977   1.67798   1.67966
 Alpha virt. eigenvalues --    1.68335   1.68597   1.68758   1.69284   1.69542
 Alpha virt. eigenvalues --    1.69703   1.70254   1.70289   1.70644   1.70833
 Alpha virt. eigenvalues --    1.71167   1.71283   1.71398   1.71713   1.72456
 Alpha virt. eigenvalues --    1.72778   1.72915   1.73491   1.73797   1.74125
 Alpha virt. eigenvalues --    1.74570   1.74723   1.75133   1.75628   1.75881
 Alpha virt. eigenvalues --    1.76618   1.76998   1.77668   1.78066   1.78729
 Alpha virt. eigenvalues --    1.79225   1.79509   1.79789   1.80047   1.80109
 Alpha virt. eigenvalues --    1.80480   1.81420   1.82168   1.82545   1.82833
 Alpha virt. eigenvalues --    1.83349   1.83739   1.84299   1.84636   1.84718
 Alpha virt. eigenvalues --    1.85233   1.85823   1.85882   1.86942   1.87239
 Alpha virt. eigenvalues --    1.87438   1.88036   1.88236   1.88484   1.88962
 Alpha virt. eigenvalues --    1.89201   1.89465   1.89881   1.90193   1.90337
 Alpha virt. eigenvalues --    1.90849   1.90975   1.91208   1.91508   1.91988
 Alpha virt. eigenvalues --    1.92450   1.92589   1.93133   1.93256   1.93460
 Alpha virt. eigenvalues --    1.93660   1.94267   1.94461   1.94716   1.95046
 Alpha virt. eigenvalues --    1.95348   1.95702   1.96122   1.96485   1.96849
 Alpha virt. eigenvalues --    1.97387   1.97783   1.98150   1.98474   1.98605
 Alpha virt. eigenvalues --    1.98796   1.99167   1.99636   2.00452   2.00623
 Alpha virt. eigenvalues --    2.00880   2.00919   2.01445   2.02097   2.02732
 Alpha virt. eigenvalues --    2.03004   2.03089   2.03547   2.03890   2.04480
 Alpha virt. eigenvalues --    2.04812   2.04902   2.05443   2.05536   2.06147
 Alpha virt. eigenvalues --    2.06205   2.06836   2.06968   2.07186   2.07782
 Alpha virt. eigenvalues --    2.08432   2.08920   2.09172   2.09379   2.09708
 Alpha virt. eigenvalues --    2.09990   2.10762   2.11097   2.11284   2.11516
 Alpha virt. eigenvalues --    2.11828   2.12212   2.12357   2.13037   2.13083
 Alpha virt. eigenvalues --    2.13608   2.13943   2.14263   2.14529   2.14824
 Alpha virt. eigenvalues --    2.15250   2.16247   2.16529   2.16823   2.17268
 Alpha virt. eigenvalues --    2.17608   2.17935   2.18173   2.18585   2.19182
 Alpha virt. eigenvalues --    2.19336   2.19730   2.20169   2.20218   2.20466
 Alpha virt. eigenvalues --    2.20636   2.21402   2.21458   2.21635   2.22038
 Alpha virt. eigenvalues --    2.22491   2.22612   2.23066   2.23511   2.23798
 Alpha virt. eigenvalues --    2.24022   2.24163   2.24709   2.25042   2.25205
 Alpha virt. eigenvalues --    2.25439   2.25956   2.26593   2.26738   2.27125
 Alpha virt. eigenvalues --    2.27748   2.28184   2.28311   2.28743   2.29180
 Alpha virt. eigenvalues --    2.29927   2.30181   2.30546   2.30898   2.31455
 Alpha virt. eigenvalues --    2.31743   2.32060   2.32464   2.32899   2.33095
 Alpha virt. eigenvalues --    2.33446   2.33692   2.33897   2.33963   2.34550
 Alpha virt. eigenvalues --    2.34956   2.35156   2.35647   2.35995   2.36454
 Alpha virt. eigenvalues --    2.37053   2.37124   2.37390   2.37655   2.38098
 Alpha virt. eigenvalues --    2.38820   2.38962   2.39550   2.39889   2.40478
 Alpha virt. eigenvalues --    2.40791   2.40993   2.41465   2.41556   2.42109
 Alpha virt. eigenvalues --    2.42347   2.42884   2.43319   2.43651   2.44034
 Alpha virt. eigenvalues --    2.44434   2.44853   2.45110   2.45481   2.45814
 Alpha virt. eigenvalues --    2.46475   2.46722   2.47103   2.47628   2.47920
 Alpha virt. eigenvalues --    2.48659   2.48802   2.49144   2.49451   2.49673
 Alpha virt. eigenvalues --    2.50207   2.50273   2.51255   2.51343   2.52111
 Alpha virt. eigenvalues --    2.52731   2.52995   2.53455   2.53557   2.53694
 Alpha virt. eigenvalues --    2.53890   2.54766   2.54889   2.55085   2.55579
 Alpha virt. eigenvalues --    2.55942   2.56321   2.56651   2.56894   2.57237
 Alpha virt. eigenvalues --    2.57364   2.57575   2.57996   2.58212   2.58279
 Alpha virt. eigenvalues --    2.58571   2.58979   2.59302   2.59541   2.59836
 Alpha virt. eigenvalues --    2.60152   2.60495   2.60839   2.60996   2.61272
 Alpha virt. eigenvalues --    2.61421   2.61945   2.62209   2.62489   2.62624
 Alpha virt. eigenvalues --    2.63026   2.63228   2.63606   2.64159   2.64447
 Alpha virt. eigenvalues --    2.64589   2.64647   2.64764   2.65226   2.65271
 Alpha virt. eigenvalues --    2.65448   2.65813   2.65913   2.66233   2.66565
 Alpha virt. eigenvalues --    2.67090   2.67407   2.67537   2.67610   2.68190
 Alpha virt. eigenvalues --    2.68722   2.69036   2.69322   2.69428   2.69921
 Alpha virt. eigenvalues --    2.70506   2.70765   2.70885   2.71105   2.71405
 Alpha virt. eigenvalues --    2.71724   2.71964   2.72207   2.72534   2.72906
 Alpha virt. eigenvalues --    2.73191   2.73477   2.73523   2.74069   2.74244
 Alpha virt. eigenvalues --    2.74561   2.75365   2.75917   2.76213   2.76337
 Alpha virt. eigenvalues --    2.76644   2.76811   2.76957   2.77259   2.77564
 Alpha virt. eigenvalues --    2.77790   2.78069   2.78534   2.79206   2.79506
 Alpha virt. eigenvalues --    2.79744   2.80024   2.80211   2.80365   2.81065
 Alpha virt. eigenvalues --    2.81280   2.81459   2.81872   2.82372   2.82685
 Alpha virt. eigenvalues --    2.83047   2.83162   2.83758   2.84032   2.84258
 Alpha virt. eigenvalues --    2.84509   2.84723   2.85177   2.85322   2.85566
 Alpha virt. eigenvalues --    2.85948   2.86202   2.86411   2.86944   2.87046
 Alpha virt. eigenvalues --    2.87347   2.87523   2.87688   2.88295   2.88680
 Alpha virt. eigenvalues --    2.88965   2.89171   2.89385   2.89558   2.89812
 Alpha virt. eigenvalues --    2.89954   2.90448   2.90863   2.91419   2.91444
 Alpha virt. eigenvalues --    2.91870   2.91947   2.92268   2.92351   2.92772
 Alpha virt. eigenvalues --    2.92877   2.93211   2.93513   2.93707   2.94250
 Alpha virt. eigenvalues --    2.94480   2.94786   2.94820   2.95568   2.96036
 Alpha virt. eigenvalues --    2.96361   2.96604   2.96906   2.97121   2.97908
 Alpha virt. eigenvalues --    2.98412   2.98845   2.99342   2.99558   3.00161
 Alpha virt. eigenvalues --    3.00310   3.00518   3.01209   3.01523   3.01986
 Alpha virt. eigenvalues --    3.02140   3.02667   3.03246   3.03390   3.04174
 Alpha virt. eigenvalues --    3.04430   3.04710   3.05099   3.05279   3.05663
 Alpha virt. eigenvalues --    3.05833   3.06161   3.06816   3.07024   3.07216
 Alpha virt. eigenvalues --    3.08050   3.08314   3.08704   3.08991   3.09589
 Alpha virt. eigenvalues --    3.09801   3.10356   3.10564   3.10785   3.11464
 Alpha virt. eigenvalues --    3.11540   3.12119   3.12225   3.12641   3.12853
 Alpha virt. eigenvalues --    3.13313   3.13614   3.13831   3.13996   3.14528
 Alpha virt. eigenvalues --    3.14694   3.15362   3.15475   3.15876   3.15965
 Alpha virt. eigenvalues --    3.16363   3.16740   3.16824   3.17247   3.17448
 Alpha virt. eigenvalues --    3.17709   3.18170   3.18480   3.18843   3.19195
 Alpha virt. eigenvalues --    3.19224   3.19615   3.19993   3.20315   3.20577
 Alpha virt. eigenvalues --    3.20984   3.21477   3.21679   3.21863   3.22079
 Alpha virt. eigenvalues --    3.22401   3.22621   3.23236   3.23286   3.23439
 Alpha virt. eigenvalues --    3.23595   3.24192   3.24401   3.24693   3.24940
 Alpha virt. eigenvalues --    3.25295   3.25706   3.25803   3.26236   3.26426
 Alpha virt. eigenvalues --    3.26618   3.26987   3.27243   3.27584   3.27945
 Alpha virt. eigenvalues --    3.28410   3.28445   3.28761   3.29221   3.29519
 Alpha virt. eigenvalues --    3.29626   3.29876   3.30282   3.30494   3.30740
 Alpha virt. eigenvalues --    3.31088   3.31444   3.31880   3.31979   3.32382
 Alpha virt. eigenvalues --    3.32640   3.32676   3.32931   3.33229   3.33396
 Alpha virt. eigenvalues --    3.33762   3.33940   3.34231   3.34485   3.34834
 Alpha virt. eigenvalues --    3.35139   3.35426   3.35489   3.35605   3.35885
 Alpha virt. eigenvalues --    3.36287   3.36535   3.36833   3.37144   3.37544
 Alpha virt. eigenvalues --    3.37812   3.37942   3.38288   3.38637   3.38729
 Alpha virt. eigenvalues --    3.39122   3.39455   3.39558   3.39708   3.40065
 Alpha virt. eigenvalues --    3.40208   3.40517   3.40620   3.41118   3.41239
 Alpha virt. eigenvalues --    3.41598   3.41829   3.41893   3.42159   3.42558
 Alpha virt. eigenvalues --    3.42688   3.42910   3.43103   3.43456   3.43527
 Alpha virt. eigenvalues --    3.43752   3.44110   3.44197   3.44593   3.45010
 Alpha virt. eigenvalues --    3.45266   3.45401   3.45732   3.45984   3.46413
 Alpha virt. eigenvalues --    3.46520   3.46711   3.47114   3.47437   3.47606
 Alpha virt. eigenvalues --    3.47916   3.48556   3.49011   3.49401   3.49530
 Alpha virt. eigenvalues --    3.49874   3.50156   3.50522   3.50589   3.51038
 Alpha virt. eigenvalues --    3.51350   3.51407   3.51968   3.52155   3.52513
 Alpha virt. eigenvalues --    3.52592   3.52943   3.53288   3.53603   3.53726
 Alpha virt. eigenvalues --    3.54046   3.54310   3.54747   3.55198   3.55316
 Alpha virt. eigenvalues --    3.55658   3.56268   3.56366   3.56602   3.57168
 Alpha virt. eigenvalues --    3.57359   3.57404   3.57676   3.57935   3.58082
 Alpha virt. eigenvalues --    3.58269   3.58929   3.59314   3.59449   3.60006
 Alpha virt. eigenvalues --    3.60411   3.60954   3.61402   3.61463   3.61939
 Alpha virt. eigenvalues --    3.62237   3.62387   3.62733   3.63399   3.63853
 Alpha virt. eigenvalues --    3.64014   3.64296   3.64549   3.65424   3.65561
 Alpha virt. eigenvalues --    3.66302   3.66753   3.67173   3.67648   3.68254
 Alpha virt. eigenvalues --    3.68509   3.68825   3.68935   3.69598   3.70284
 Alpha virt. eigenvalues --    3.70517   3.70994   3.71534   3.71918   3.72406
 Alpha virt. eigenvalues --    3.72734   3.73034   3.73108   3.73259   3.73929
 Alpha virt. eigenvalues --    3.74238   3.74917   3.75158   3.75624   3.76317
 Alpha virt. eigenvalues --    3.76951   3.77216   3.77644   3.77871   3.78340
 Alpha virt. eigenvalues --    3.78916   3.79907   3.80011   3.80695   3.80975
 Alpha virt. eigenvalues --    3.81755   3.82107   3.82253   3.82945   3.83080
 Alpha virt. eigenvalues --    3.83626   3.83817   3.84157   3.84616   3.84989
 Alpha virt. eigenvalues --    3.85273   3.85855   3.85963   3.86440   3.86930
 Alpha virt. eigenvalues --    3.87496   3.88088   3.88639   3.88940   3.89503
 Alpha virt. eigenvalues --    3.89885   3.90324   3.92305   3.92996   3.93598
 Alpha virt. eigenvalues --    3.93768   3.94398   3.94613   3.95121   3.96076
 Alpha virt. eigenvalues --    3.96319   3.97390   3.98039   3.98741   3.99063
 Alpha virt. eigenvalues --    3.99443   3.99682   4.00601   4.01493   4.02271
 Alpha virt. eigenvalues --    4.02467   4.02770   4.03643   4.03712   4.04601
 Alpha virt. eigenvalues --    4.04701   4.05567   4.05922   4.06374   4.06849
 Alpha virt. eigenvalues --    4.06966   4.07140   4.07500   4.08551   4.08978
 Alpha virt. eigenvalues --    4.09917   4.10838   4.11589   4.12362   4.12660
 Alpha virt. eigenvalues --    4.12730   4.13279   4.13768   4.14485   4.14702
 Alpha virt. eigenvalues --    4.14796   4.15064   4.15207   4.15481   4.15686
 Alpha virt. eigenvalues --    4.16075   4.16254   4.16660   4.17698   4.18245
 Alpha virt. eigenvalues --    4.18750   4.18834   4.19364   4.19451   4.19886
 Alpha virt. eigenvalues --    4.20124   4.20486   4.20756   4.21442   4.21748
 Alpha virt. eigenvalues --    4.22464   4.22928   4.23114   4.23659   4.23690
 Alpha virt. eigenvalues --    4.24633   4.24724   4.25079   4.25635   4.25815
 Alpha virt. eigenvalues --    4.26286   4.26549   4.26727   4.28018   4.28117
 Alpha virt. eigenvalues --    4.28449   4.28788   4.29164   4.29506   4.30259
 Alpha virt. eigenvalues --    4.31019   4.31723   4.32070   4.32293   4.32839
 Alpha virt. eigenvalues --    4.33465   4.33869   4.34577   4.34895   4.34976
 Alpha virt. eigenvalues --    4.35502   4.35779   4.36500   4.36573   4.37201
 Alpha virt. eigenvalues --    4.37447   4.37781   4.38542   4.40190   4.40331
 Alpha virt. eigenvalues --    4.41309   4.41523   4.42243   4.42306   4.42927
 Alpha virt. eigenvalues --    4.43678   4.43913   4.44384   4.45157   4.45445
 Alpha virt. eigenvalues --    4.45998   4.46565   4.47061   4.47216   4.47647
 Alpha virt. eigenvalues --    4.48213   4.49382   4.49957   4.50457   4.51286
 Alpha virt. eigenvalues --    4.51868   4.52500   4.52633   4.53742   4.54062
 Alpha virt. eigenvalues --    4.54983   4.55870   4.56530   4.56881   4.57324
 Alpha virt. eigenvalues --    4.57895   4.58698   4.60045   4.60238   4.61439
 Alpha virt. eigenvalues --    4.62351   4.63038   4.64536   4.65918   4.67335
 Alpha virt. eigenvalues --    4.67855   4.69673   4.70125   4.70454   4.73878
 Alpha virt. eigenvalues --    4.74011   4.74789   4.75173   4.75406   4.76550
 Alpha virt. eigenvalues --    4.76765   4.77077   4.77398   4.77759   4.79117
 Alpha virt. eigenvalues --    4.79894   4.80219   4.81736   4.82970   4.83699
 Alpha virt. eigenvalues --    4.84761   4.85878   4.86222   4.86778   4.87627
 Alpha virt. eigenvalues --    4.89098   4.90107   4.90785   4.90926   4.94054
 Alpha virt. eigenvalues --    4.94701   4.96690   4.96733   4.97734   4.98955
 Alpha virt. eigenvalues --    4.99745   5.00176   5.01296   5.02509   5.04312
 Alpha virt. eigenvalues --    5.05168   5.05629   5.06283   5.07112   5.08143
 Alpha virt. eigenvalues --    5.08763   5.09959   5.10204   5.10678   5.12798
 Alpha virt. eigenvalues --    5.12947   5.13718   5.14805   5.15650   5.16081
[...]
              Bcc     0.0020     0.267     0.095     0.089  0.7967 -0.5943 -0.1098
 
              Baa    -0.0009    -0.502    -0.179    -0.167  0.7466  0.6385 -0.1866
    35 H(1)   Bbb    -0.0006    -0.307    -0.110    -0.103  0.2848 -0.0532  0.9571
              Bcc     0.0015     0.809     0.289     0.270 -0.6012  0.7678  0.2216
 
              Baa    -0.0009    -0.471    -0.168    -0.157  0.4253  0.9043  0.0367
    36 H(1)   Bbb    -0.0006    -0.340    -0.121    -0.114  0.2279 -0.1462  0.9626
              Bcc     0.0015     0.811     0.289     0.271  0.8759 -0.4011 -0.2683
 
              Baa    -0.0023    -0.312    -0.111    -0.104  0.6170 -0.1198  0.7778
    37 C(13)  Bbb    -0.0015    -0.207    -0.074    -0.069  0.5715  0.7478 -0.3381
              Bcc     0.0039     0.519     0.185     0.173 -0.5411  0.6531  0.5298
 
              Baa    -0.0015    -0.798    -0.285    -0.266  0.2667  0.7060 -0.6560
    38 H(1)   Bbb    -0.0010    -0.529    -0.189    -0.177  0.8902  0.0803  0.4484
              Bcc     0.0025     1.328     0.474     0.443 -0.3693  0.7036  0.6071
 
              Baa    -0.0042    -0.564    -0.201    -0.188 -0.2633  0.8996  0.3484
    39 C(13)  Bbb    -0.0028    -0.374    -0.133    -0.125 -0.1503 -0.3950  0.9063
              Bcc     0.0070     0.938     0.335     0.313  0.9529  0.1863  0.2392
 
              Baa    -0.0021    -1.123    -0.401    -0.375  0.4043  0.7666 -0.4989
    40 H(1)   Bbb    -0.0019    -1.032    -0.368    -0.344 -0.4133  0.6397  0.6480
              Bcc     0.0040     2.155     0.769     0.719  0.8159 -0.0558  0.5755
 
              Baa    -0.0205     1.481     0.529     0.494  0.0875  0.3524  0.9318
    41 O(17)  Bbb    -0.0164     1.184     0.422     0.395  0.7440 -0.6451  0.1741
              Bcc     0.0368    -2.665    -0.951    -0.889  0.6624  0.6780 -0.3186
 
              Baa    -0.0267     1.936     0.691     0.646 -0.1916  0.2856  0.9390
    42 O(17)  Bbb    -0.0255     1.842     0.657     0.615  0.9635 -0.1275  0.2354
              Bcc     0.0522    -3.778    -1.348    -1.260  0.1869  0.9498 -0.2507
 
              Baa    -0.3537    16.892     6.028     5.635 -0.0864  0.9914  0.0979
    43 Ni(61) Bbb     0.0163    -0.776    -0.277    -0.259  0.4154 -0.0535  0.9080
              Bcc     0.3374   -16.116    -5.750    -5.376  0.9055  0.1191 -0.4073
 
              Baa    -0.0124    -0.650    -0.232    -0.217  0.9204  0.3831 -0.0784
    44 Cl(35) Bbb    -0.0028    -0.148    -0.053    -0.049 -0.1196  0.4666  0.8763
              Bcc     0.0152     0.798     0.285     0.266 -0.3723  0.7972 -0.4753
 
              Baa    -0.0020    -0.263    -0.094    -0.088  0.7052  0.3767  0.6006
    45 C(13)  Bbb    -0.0015    -0.205    -0.073    -0.068 -0.3659  0.9190 -0.1467
              Bcc     0.0035     0.467     0.167     0.156 -0.6072 -0.1163  0.7860
 
              Baa    -0.0009    -0.116    -0.042    -0.039  0.5541  0.0202  0.8322
    46 C(13)  Bbb    -0.0004    -0.053    -0.019    -0.018 -0.0258  0.9996 -0.0071
              Bcc     0.0013     0.169     0.060     0.056  0.8321  0.0176 -0.5544
 
              Baa    -0.0010    -0.545    -0.194    -0.182 -0.5524  0.7034 -0.4472
    47 H(1)   Bbb    -0.0009    -0.482    -0.172    -0.161  0.2147  0.6385  0.7391
              Bcc     0.0019     1.027     0.366     0.342  0.8055  0.3123 -0.5037
 
              Baa    -0.0006    -0.338    -0.121    -0.113 -0.0599  0.9891 -0.1346
    48 H(1)   Bbb    -0.0005    -0.265    -0.094    -0.088  0.3894  0.1473  0.9092
              Bcc     0.0011     0.603     0.215     0.201  0.9191  0.0021 -0.3939
 
              Baa    -0.0004    -0.226    -0.081    -0.075  0.6272 -0.2055  0.7513
    49 H(1)   Bbb    -0.0004    -0.215    -0.077    -0.072  0.0289  0.9700  0.2413
              Bcc     0.0008     0.441     0.157     0.147  0.7783  0.1296 -0.6143
 
              Baa    -0.0005    -0.065    -0.023    -0.022 -0.3164  0.6913 -0.6496
    50 C(13)  Bbb    -0.0004    -0.047    -0.017    -0.016  0.7489  0.6023  0.2762
              Bcc     0.0008     0.113     0.040     0.038 -0.5822  0.3991  0.7083
 
              Baa    -0.0004    -0.219    -0.078    -0.073 -0.2849  0.6848 -0.6707
    51 H(1)   Bbb    -0.0004    -0.200    -0.071    -0.067  0.7835  0.5695  0.2487
              Bcc     0.0008     0.419     0.149     0.140 -0.5522  0.4546  0.6988
 
              Baa    -0.0003    -0.159    -0.057    -0.053  0.5604 -0.4601  0.6887
    52 H(1)   Bbb    -0.0003    -0.154    -0.055    -0.051  0.4895  0.8547  0.1727
              Bcc     0.0006     0.313     0.112     0.104 -0.6681  0.2403  0.7042
 
              Baa    -0.0004    -0.211    -0.075    -0.070  0.4642  0.8854 -0.0239
    53 H(1)   Bbb    -0.0004    -0.188    -0.067    -0.063  0.4590 -0.2174  0.8614
              Bcc     0.0007     0.399     0.142     0.133  0.7576 -0.4108 -0.5073
 
              Baa    -0.0008    -0.110    -0.039    -0.037  0.4014  0.9022  0.1578
    54 C(13)  Bbb    -0.0006    -0.080    -0.029    -0.027  0.8010 -0.4293  0.4172
              Bcc     0.0014     0.190     0.068     0.063 -0.4442  0.0410  0.8950
 
              Baa    -0.0012    -0.629    -0.224    -0.210  0.3711  0.8825  0.2889
    55 H(1)   Bbb    -0.0007    -0.378    -0.135    -0.126  0.8607 -0.4437  0.2496
              Bcc     0.0019     1.007     0.359     0.336 -0.3485 -0.1560  0.9242
 
              Baa    -0.0005    -0.246    -0.088    -0.082  0.4450  0.8597  0.2507
    56 H(1)   Bbb    -0.0004    -0.187    -0.067    -0.062  0.7593 -0.5107  0.4034
              Bcc     0.0008     0.433     0.155     0.144 -0.4748 -0.0108  0.8800
 
              Baa    -0.0007    -0.365    -0.130    -0.122  0.5520  0.8330 -0.0371
    57 H(1)   Bbb    -0.0005    -0.280    -0.100    -0.093  0.7836 -0.5031  0.3644
              Bcc     0.0012     0.646     0.230     0.215 -0.2849  0.2302  0.9305
 
              Baa    -0.0045    -0.600    -0.214    -0.200 -0.3400  0.0955  0.9355
    58 C(13)  Bbb    -0.0037    -0.493    -0.176    -0.165  0.7578 -0.5612  0.3328
              Bcc     0.0081     1.093     0.390     0.365  0.5568  0.8221  0.1184
 
              Baa    -0.0014    -0.184    -0.066    -0.062 -0.5725  0.7039  0.4204
    59 C(13)  Bbb    -0.0010    -0.128    -0.046    -0.043  0.2698 -0.3224  0.9073
              Bcc     0.0023     0.313     0.112     0.104  0.7742  0.6329 -0.0053
 
              Baa    -0.0018    -0.948    -0.338    -0.316 -0.5456  0.5645  0.6195
    60 H(1)   Bbb    -0.0013    -0.694    -0.248    -0.231  0.5283 -0.3422  0.7771
              Bcc     0.0031     1.641     0.586     0.547  0.6506  0.7512 -0.1115
 
              Baa    -0.0011    -0.569    -0.203    -0.190 -0.4137  0.8858  0.2103
    61 H(1)   Bbb    -0.0009    -0.458    -0.163    -0.153  0.2590 -0.1070  0.9599
              Bcc     0.0019     1.026     0.366     0.342  0.8728  0.4516 -0.1852
 
              Baa    -0.0007    -0.396    -0.141    -0.132 -0.4565  0.5013  0.7350
    62 H(1)   Bbb    -0.0006    -0.300    -0.107    -0.100  0.5195 -0.5205  0.6776
              Bcc     0.0013     0.696     0.248     0.232  0.7223  0.6912 -0.0228
 
              Baa    -0.0014    -0.184    -0.065    -0.061 -0.3274 -0.3121  0.8918
    63 C(13)  Bbb    -0.0009    -0.116    -0.041    -0.039  0.7392 -0.6725  0.0360
              Bcc     0.0022     0.300     0.107     0.100  0.5885  0.6710  0.4509
 
              Baa    -0.0010    -0.535    -0.191    -0.179 -0.5939 -0.3504  0.7243
    64 H(1)   Bbb    -0.0008    -0.431    -0.154    -0.144 -0.6117  0.7813 -0.1236
              Bcc     0.0018     0.966     0.345     0.322  0.5226  0.5165  0.6784
 
              Baa    -0.0020    -1.054    -0.376    -0.352 -0.3540 -0.3322  0.8743
    65 H(1)   Bbb    -0.0011    -0.612    -0.219    -0.204  0.8411 -0.5219  0.1422
              Bcc     0.0031     1.666     0.595     0.556  0.4091  0.7857  0.4641
 
              Baa    -0.0007    -0.397    -0.142    -0.132 -0.2408 -0.3668  0.8986
    66 H(1)   Bbb    -0.0005    -0.259    -0.092    -0.086  0.7896 -0.6124 -0.0384
              Bcc     0.0012     0.656     0.234     0.219  0.5644  0.7003  0.4370
 
              Baa    -0.0013    -0.170    -0.061    -0.057 -0.4615  0.6043  0.6494
    67 C(13)  Bbb    -0.0012    -0.156    -0.056    -0.052  0.1176  0.7673 -0.6304
              Bcc     0.0024     0.326     0.116     0.109  0.8793  0.2146  0.4252
 
              Baa    -0.0007    -0.351    -0.125    -0.117 -0.4695  0.7239  0.5055
    68 H(1)   Bbb    -0.0004    -0.233    -0.083    -0.078 -0.2358 -0.6546  0.7183
              Bcc     0.0011     0.584     0.208     0.195  0.8509  0.2180  0.4780
 
              Baa    -0.0006    -0.293    -0.105    -0.098 -0.4194  0.2229  0.8800
    69 H(1)   Bbb    -0.0004    -0.192    -0.069    -0.064 -0.3660  0.8455 -0.3887
              Bcc     0.0009     0.486     0.173     0.162  0.8307  0.4851  0.2731
 
              Baa    -0.0006    -0.338    -0.121    -0.113  0.0030 -0.6822  0.7311
    70 H(1)   Bbb    -0.0005    -0.258    -0.092    -0.086 -0.1971  0.7164  0.6693
              Bcc     0.0011     0.596     0.213     0.199  0.9804  0.1461  0.1323
 
              Baa    -0.0039    -0.517    -0.185    -0.173  0.8076  0.2754  0.5216
    71 C(13)  Bbb    -0.0002    -0.029    -0.010    -0.010 -0.4908  0.8041  0.3355
              Bcc     0.0041     0.546     0.195     0.182 -0.3270 -0.5269  0.7845
 
              Baa    -0.0045    -0.609    -0.217    -0.203 -0.2887 -0.2536  0.9232
    72 C(13)  Bbb     0.0019     0.249     0.089     0.083  0.7803 -0.6211  0.0734
              Bcc     0.0027     0.360     0.128     0.120  0.5548  0.7416  0.3772
 
              Baa    -0.0043    -0.576    -0.206    -0.192 -0.0817 -0.0540  0.9952
    73 C(13)  Bbb     0.0010     0.136     0.048     0.045  0.7124 -0.7015  0.0204
              Bcc     0.0033     0.441     0.157     0.147  0.6970  0.7106  0.0958
 
              Baa    -0.0013    -0.170    -0.061    -0.057  0.9116 -0.3145  0.2649
    74 C(13)  Bbb    -0.0004    -0.059    -0.021    -0.020  0.1509  0.8551  0.4961
              Bcc     0.0017     0.229     0.082     0.076 -0.3825 -0.4122  0.8269
 
              Baa    -0.0008    -0.412    -0.147    -0.137  0.8732 -0.4855 -0.0424
    75 H(1)   Bbb    -0.0005    -0.262    -0.094    -0.087  0.1697  0.2215  0.9603
              Bcc     0.0013     0.674     0.241     0.225  0.4568  0.8457 -0.2758
 
              Baa    -0.0014    -0.185    -0.066    -0.062  0.7475 -0.6604  0.0710
    76 C(13)  Bbb    -0.0006    -0.087    -0.031    -0.029  0.4092  0.5421  0.7339
              Bcc     0.0020     0.272     0.097     0.091 -0.5232 -0.5196  0.6755
 
              Baa    -0.0016    -0.849    -0.303    -0.283  0.7900 -0.2905  0.5399
    77 H(1)   Bbb    -0.0013    -0.695    -0.248    -0.232 -0.1676  0.7447  0.6460
              Bcc     0.0029     1.544     0.551     0.515  0.5898  0.6008 -0.5396
 
              Baa    -0.0050    -0.670    -0.239    -0.224 -0.2443 -0.1658  0.9554
    78 C(13)  Bbb     0.0020     0.272     0.097     0.091  0.8464 -0.5172  0.1266
              Bcc     0.0030     0.398     0.142     0.133  0.4732  0.8396  0.2667
 
              Baa    -0.0004    -0.211    -0.075    -0.070  0.8575 -0.3702  0.3574
    79 H(1)   Bbb    -0.0003    -0.150    -0.054    -0.050 -0.2382  0.3301  0.9134
              Bcc     0.0007     0.361     0.129     0.121  0.4561  0.8683 -0.1949
 
              Baa    -0.0007    -0.389    -0.139    -0.130  0.4945 -0.5675  0.6583
    80 H(1)   Bbb    -0.0006    -0.345    -0.123    -0.115 -0.2044  0.6602  0.7227
              Bcc     0.0014     0.734     0.262     0.245  0.8448  0.4919 -0.2105
 
              Baa    -0.0002    -0.028    -0.010    -0.009 -0.5494  0.6585  0.5144
    81 C(13)  Bbb    -0.0002    -0.025    -0.009    -0.008  0.4220 -0.3127  0.8510
              Bcc     0.0004     0.053     0.019     0.018  0.7212  0.6846 -0.1061
 
              Baa    -0.0002    -0.090    -0.032    -0.030  0.7422 -0.6364  0.2099
    82 H(1)   Bbb    -0.0002    -0.085    -0.030    -0.028 -0.0541  0.2553  0.9653
              Bcc     0.0003     0.174     0.062     0.058  0.6679  0.7279 -0.1551
 
              Baa    -0.0002    -0.129    -0.046    -0.043 -0.3617  0.3188  0.8761
    83 H(1)   Bbb    -0.0002    -0.110    -0.039    -0.037  0.6697 -0.5649  0.4821
              Bcc     0.0004     0.239     0.085     0.080  0.6486  0.7610 -0.0092
 
              Baa    -0.0002    -0.085    -0.030    -0.028  0.1017 -0.0285  0.9944
    84 H(1)   Bbb    -0.0001    -0.072    -0.026    -0.024 -0.6721  0.7350  0.0898
              Bcc     0.0003     0.157     0.056     0.052  0.7335  0.6774 -0.0556
 
              Baa    -0.0053     0.381     0.136     0.127 -0.2384 -0.1834  0.9537
    85 O(17)  Bbb     0.0022    -0.159    -0.057    -0.053 -0.5879  0.8089  0.0086
              Bcc     0.0031    -0.222    -0.079    -0.074  0.7730  0.5586  0.3007
 
              Baa    -0.0015    -0.809    -0.289    -0.270 -0.3474  0.8263 -0.4433
    86 H(1)   Bbb    -0.0010    -0.519    -0.185    -0.173  0.9337  0.2615 -0.2445
              Bcc     0.0025     1.328     0.474     0.443  0.0861  0.4989  0.8624
 
              Baa    -0.0017    -0.224    -0.080    -0.075  0.7573  0.3624  0.5432
    87 C(13)  Bbb    -0.0002    -0.026    -0.009    -0.009  0.6490 -0.5103 -0.5643
              Bcc     0.0019     0.250     0.089     0.083  0.0727  0.7799 -0.6217
 
              Baa    -0.0020    -0.274    -0.098    -0.091  0.9096 -0.1493 -0.3876
    88 C(13)  Bbb    -0.0003    -0.034    -0.012    -0.011  0.1518  0.9881 -0.0244
              Bcc     0.0023     0.308     0.110     0.103  0.3866 -0.0367  0.9215
 
              Baa    -0.0014    -0.184    -0.066    -0.061  0.7149 -0.5364 -0.4484
    89 C(13)  Bbb     0.0002     0.029     0.010     0.010  0.4658  0.8437 -0.2668
              Bcc     0.0012     0.156     0.055     0.052  0.5215 -0.0181  0.8531
 
              Baa    -0.0013    -0.176    -0.063    -0.059  0.2746  0.5288  0.8031
    90 C(13)  Bbb    -0.0001    -0.019    -0.007    -0.006  0.9291  0.0694 -0.3633
              Bcc     0.0015     0.196     0.070     0.065 -0.2478  0.8459 -0.4722
 
              Baa    -0.0021    -1.107    -0.395    -0.369  0.0729  0.8361  0.5437
    91 H(1)   Bbb    -0.0014    -0.755    -0.269    -0.252  0.9194  0.1548 -0.3615
              Bcc     0.0035     1.862     0.664     0.621  0.3864 -0.5262  0.7575
 
              Baa    -0.0008    -0.113    -0.040    -0.038  0.3346  0.5729  0.7482
    92 C(13)  Bbb    -0.0001    -0.008    -0.003    -0.003  0.9420 -0.2248 -0.2492
              Bcc     0.0009     0.121     0.043     0.040  0.0254  0.7882 -0.6149
 
              Baa    -0.0006    -0.297    -0.106    -0.099  0.5923  0.5312  0.6058
    93 H(1)   Bbb    -0.0003    -0.176    -0.063    -0.059  0.7461 -0.6455 -0.1635
              Bcc     0.0009     0.473     0.169     0.158 -0.3042 -0.5488  0.7787
 
              Baa    -0.0014    -0.185    -0.066    -0.062  0.9626  0.0911 -0.2552
    94 C(13)  Bbb    -0.0005    -0.072    -0.026    -0.024 -0.0931  0.9956  0.0043
              Bcc     0.0019     0.257     0.092     0.086  0.2545  0.0197  0.9669
 
              Baa    -0.0005    -0.267    -0.095    -0.089 -0.0783  0.5734  0.8155
    95 H(1)   Bbb    -0.0005    -0.245    -0.087    -0.082  0.8983  0.3953 -0.1917
              Bcc     0.0010     0.512     0.183     0.171 -0.4323  0.7176 -0.5461
 
              Baa    -0.0003    -0.147    -0.053    -0.049  0.4781  0.5674  0.6704
    96 H(1)   Bbb    -0.0002    -0.123    -0.044    -0.041  0.8778 -0.3348 -0.3426
              Bcc     0.0005     0.270     0.096     0.090  0.0301  0.7523 -0.6582
 
              Baa    -0.0004    -0.198    -0.071    -0.066  0.9666  0.1658 -0.1953
    97 H(1)   Bbb    -0.0002    -0.120    -0.043    -0.040  0.0707  0.5601  0.8254
              Bcc     0.0006     0.318     0.114     0.106 -0.2462  0.8116 -0.5297
 

 ---------------------------------------------------------------------------------

 1\1\GINC-M9-22-3\SP\UM06L\Gen\C41H46Cl1N4Ni2O3(2)\MALLA1\24-Aug-2022\0
 \\#m06l/gen pseudo=read integral=ultrafine temperature=308 scrf=(read)
 \\Title Card Required\\0,2\C,0,2.424066,-1.144211,3.256703\C,0,1.49351
 6,-0.532308,4.108411\C,0,0.226844,-0.121197,3.611059\C,0,-0.0316,-0.33
 4329,2.202336\C,0,2.096144,-1.307374,1.89868\H,0,-0.652762,0.635482,5.
 471429\H,0,3.40178,-1.485476,3.624661\H,0,1.728631,-0.378855,5.172907\
 C,0,-0.824217,0.449674,4.400328\C,0,-2.262302,0.42558,2.452673\C,0,-2.
 066778,0.709453,3.821894\H,0,-2.908064,1.09129,4.41871\N,0,-1.234357,-
 0.026597,1.649421\N,0,0.896622,-0.896037,1.396625\C,0,2.941602,-1.9491
 35,0.893234\C,0,-3.501111,0.425878,1.726215\N,0,2.700965,-1.853516,-0.
 384998\N,0,-3.529754,-0.011247,0.474029\Ni,0,-1.6605,-0.145463,-0.2290
 56\C,0,0.115561,0.517142,-0.703688\C,0,0.581784,1.774765,-0.46357\C,0,
 -2.03011,-0.381837,-2.223043\H,0,-3.13018,-0.3946,-2.254697\C,0,-1.301
 921,0.83463,-2.450773\H,0,-0.334683,0.73104,-2.963645\C,0,-1.328394,-1
 .639551,-2.168881\H,0,-1.914132,-2.538413,-1.920748\C,0,0.05892,-1.803
 986,-2.424415\H,0,0.59224,-1.043215,-3.018872\H,0,-0.145482,2.582837,-
 0.693634\C,0,-5.629232,0.777331,1.157973\H,0,-5.758732,1.817686,0.7908
 21\H,0,-6.593775,0.4077,1.551973\C,0,4.482774,-3.367414,0.087817\H,0,4
 .373186,-4.463474,0.202984\H,0,5.56126,-3.119073,0.020645\C,0,3.624519
 ,-2.776525,-1.07683\H,0,2.995384,-3.578337,-1.526575\C,0,-4.960612,-0.
 143187,0.104927\H,0,-5.127797,0.257173,-0.918929\O,0,3.958204,-2.74133
 2,1.295845\O,0,-4.676474,0.809636,2.264367\Ni,0,0.516665,-1.346668,-0.
 495759\Cl,0,0.128757,-3.626351,0.10066\C,0,4.454996,-2.142355,-2.24188
 6\C,0,5.378778,-1.013386,-1.740528\H,0,4.795646,-0.192382,-1.2772\H,0,
 6.123688,-1.369803,-0.998181\H,0,5.948689,-0.580787,-2.58929\C,0,5.300
 175,-3.26625,-2.884999\H,0,4.657498,-4.094213,-3.253356\H,0,5.872268,-
 2.8718,-3.750678\H,0,6.036932,-3.697727,-2.174426\C,0,3.490874,-1.5705
 32,-3.301046\H,0,2.880882,-0.746414,-2.88031\H,0,4.060418,-1.17093,-4.
 166353\H,0,2.799713,-2.351685,-3.681106\C,0,-5.485829,-1.626898,0.1162
 66\C,0,-5.385286,-2.250653,1.525403\H,0,-4.334204,-2.281525,1.879806\H
 ,0,-5.990632,-1.703534,2.277329\H,0,-5.756052,-3.296552,1.50293\C,0,-4
 .6557,-2.478252,-0.864384\H,0,-4.703839,-2.075217,-1.898617\H,0,-3.594
 297,-2.523405,-0.548844\H,0,-5.044458,-3.517282,-0.895267\C,0,-6.95801
 6,-1.615084,-0.354629\H,0,-7.055245,-1.172881,-1.369344\H,0,-7.352443,
 -2.65137,-0.401053\H,0,-7.619731,-1.044428,0.330452\C,0,1.858521,2.303
 098,0.023689\C,0,1.950741,3.685086,0.334916\C,0,3.031084,1.519707,0.20
 1501\C,0,3.132691,4.264216,0.822406\H,0,1.063785,4.325345,0.195337\C,0
 ,4.214945,2.082998,0.680611\H,0,2.999306,0.454873,-0.067913\C,0,4.2811
 35,3.460753,1.00457\H,0,3.149495,5.338655,1.054249\H,0,5.12197,1.47238
 1,0.811399\C,0,5.606551,5.292379,1.798607\H,0,5.428968,5.945774,0.9151
 27\H,0,4.90583,5.58807,2.61129\H,0,6.645811,5.435584,2.149329\O,0,5.48
 1156,3.913462,1.468966\H,0,0.436631,-2.833478,-2.516891\C,0,-1.885078,
 2.174674,-2.578791\C,0,-3.192789,2.510198,-2.134492\C,0,-1.109332,3.20
 4055,-3.179365\C,0,-3.707099,3.801956,-2.309842\H,0,-3.805235,1.746101
 ,-1.634466\C,0,-1.622535,4.500001,-3.347389\H,0,-0.090585,2.969773,-3.
 52924\C,0,-2.926113,4.806181,-2.917128\H,0,-4.727343,4.03326,-1.963755
 \H,0,-1.000297,5.275822,-3.821512\H,0,-3.331975,5.821569,-3.04906\\Ver
 sion=ES64L-G16RevB.01\State=2-A\HF=-2834.183235\S2=0.813619\S2-1=0.\S2
 A=0.751557\RMSD=1.965e-09\Dipole=-0.8689718,3.0351163,0.2091905\Quadru
 pole=25.9970444,-19.5993166,-6.3977278,-2.4650086,-0.4184854,7.3400952
 \PG=C01 [X(C41H46Cl1N4Ni2O3)]\\@


 THERE ARE PEOPLE SO ADDICTED TO EXAGERATING THEY
 CAN'T TELL THE TRUTH WITHOUT LYING. -- FORTUNE COOKIE
 Job cpu time:       1 days 15 hours 31 minutes 11.8 seconds.
 Elapsed time:       0 days  3 hours 17 minutes 52.9 seconds.
 File lengths (MBytes):  RWF=   3716 Int=      0 D2E=      0 Chk=    238 Scr=      1
 Normal termination of Gaussian 16 at Wed Aug 24 18:33:52 2022.
