 Entering Gaussian System, Link 0=g16
 Input=Pro_R_E_ts1_4_m06l.com
 Output=Pro_R_E_ts1_4_m06l.log
 Initial command:
 /apps/gaussian16/B.01/AVX2/g16/l1.exe "/tmp/51822059/Gau-22653.inp" -scrdir="/tmp/51822059/"
 Entering Link 1 = /apps/gaussian16/B.01/AVX2/g16/l1.exe PID=     22654.
  
 Copyright (c) 1988-2017, Gaussian, Inc.  All Rights Reserved.
  
 This is part of the Gaussian(R) 16 program.  It is based on
 the Gaussian(R) 09 system (copyright 2009, Gaussian, Inc.),
 the Gaussian(R) 03 system (copyright 2003, Gaussian, Inc.),
 the Gaussian(R) 98 system (copyright 1998, Gaussian, Inc.),
 the Gaussian(R) 94 system (copyright 1995, Gaussian, Inc.),
 the Gaussian 92(TM) system (copyright 1992, Gaussian, Inc.),
 the Gaussian 90(TM) system (copyright 1990, Gaussian, Inc.),
 the Gaussian 88(TM) system (copyright 1988, Gaussian, Inc.),
 the Gaussian 86(TM) system (copyright 1986, Carnegie Mellon
 University), and the Gaussian 82(TM) system (copyright 1983,
 Carnegie Mellon University). Gaussian is a federally registered
 trademark of Gaussian, Inc.
  
 This software contains proprietary and confidential information,
 including trade secrets, belonging to Gaussian, Inc.
  
 This software is provided under written license and may be
 used, copied, transmitted, or stored only in accord with that
 written license.
  
 The following legend is applicable only to US Government
 contracts under FAR:
  
                    RESTRICTED RIGHTS LEGEND
  
 Use, reproduction and disclosure by the US Government is
 subject to restrictions as set forth in subparagraphs (a)
 and (c) of the Commercial Computer Software - Restricted
 Rights clause in FAR 52.227-19.
  
 Gaussian, Inc.
 340 Quinnipiac St., Bldg. 40, Wallingford CT 06492
  
  
 ---------------------------------------------------------------
 Warning -- This program may not be used in any manner that
 competes with the business of Gaussian, Inc. or will provide
 assistance to any competitor of Gaussian, Inc.  The licensee
 of this program is prohibited from giving any competitor of
 Gaussian, Inc. access to this program.  By using this program,
 the user acknowledges that Gaussian, Inc. is engaged in the
 business of creating and licensing software in the field of
 computational chemistry and represents and warrants to the
 licensee that it is not a competitor of Gaussian, Inc. and that
 it will not use this program in any manner prohibited above.
 ---------------------------------------------------------------
  

 Cite this work as:
 Gaussian 16, Revision B.01,
 M. J. Frisch, G. W. Trucks, H. B. Schlegel, G. E. Scuseria, 
 M. A. Robb, J. R. Cheeseman, G. Scalmani, V. Barone, 
 G. A. Petersson, H. Nakatsuji, X. Li, M. Caricato, A. V. Marenich, 
 J. Bloino, B. G. Janesko, R. Gomperts, B. Mennucci, H. P. Hratchian, 
 J. V. Ortiz, A. F. Izmaylov, J. L. Sonnenberg, D. Williams-Young, 
 F. Ding, F. Lipparini, F. Egidi, J. Goings, B. Peng, A. Petrone, 
 T. Henderson, D. Ranasinghe, V. G. Zakrzewski, J. Gao, N. Rega, 
 G. Zheng, W. Liang, M. Hada, M. Ehara, K. Toyota, R. Fukuda, 
 J. Hasegawa, M. Ishida, T. Nakajima, Y. Honda, O. Kitao, H. Nakai, 
 T. Vreven, K. Throssell, J. A. Montgomery, Jr., J. E. Peralta, 
 F. Ogliaro, M. J. Bearpark, J. J. Heyd, E. N. Brothers, K. N. Kudin, 
 V. N. Staroverov, T. A. Keith, R. Kobayashi, J. Normand, 
 K. Raghavachari, A. P. Rendell, J. C. Burant, S. S. Iyengar, 
 J. Tomasi, M. Cossi, J. M. Millam, M. Klene, C. Adamo, R. Cammi, 
 J. W. Ochterski, R. L. Martin, K. Morokuma, O. Farkas, 
 J. B. Foresman, and D. J. Fox, Gaussian, Inc., Wallingford CT, 2016.
 
 ******************************************
 Gaussian 16:  ES64L-G16RevB.01 20-Dec-2017
                24-Aug-2022 
 ******************************************
 %nprocshared=12
 Will use up to   12 processors via shared memory.
 %mem=24GB
 --------------------------------------------------------------------
 #m06l/gen pseudo=read integral=ultrafine temperature=308 scrf=(read)
 --------------------------------------------------------------------
 1/38=1,40=2,112=308000,172=1/1;
 2/12=2,17=6,18=5,40=1/2;
 3/5=7,11=2,16=1,17=8,25=1,30=1,70=2203,74=-53,75=-5/1,2,3;
 4//1;
 5/5=2,38=5/2;
 6/7=2,8=2,9=2,10=2,28=1/1;
 99/5=1,9=1/99;
 -------------------
 Title Card Required
 -------------------
 Symbolic Z-matrix:
 Charge =  0 Multiplicity = 4
 C                     2.46473  -1.12201   3.26503 
 C                     1.52741  -0.52823   4.12072 
 C                     0.2526   -0.13873   3.62206 
 C                    -0.00828  -0.35342   2.21142 
 C                     2.13846  -1.28793   1.9061 
 H                    -0.63462   0.61837   5.47558 
 H                     3.44039  -1.46823   3.6345 
 H                     1.75627  -0.38491   5.18797 
 C                    -0.80502   0.4161    4.40707 
 C                    -2.24144   0.36583   2.46045 
 C                    -2.05584   0.65506   3.8271 
 H                    -2.89852   1.03682   4.42171 
 N                    -1.21626  -0.07989   1.66339 
 N                     0.93653  -0.88309   1.39696 
 C                     2.9651   -1.96246   0.91236 
 C                    -3.50214   0.39807   1.74608 
 N                     2.67191  -1.93694  -0.36087 
 N                    -3.59979  -0.02021   0.4997 
 Ni                   -1.6422   -0.14056  -0.30613 
 C                     0.16761   0.54962  -0.80422 
 C                     0.60682   1.81514  -0.5368 
 C                    -2.02254  -0.42511  -2.4157 
 H                    -3.12236  -0.40104  -2.44232 
 C                    -1.25566   0.79983  -2.46497 
 H                    -0.30222   0.72631  -3.01025 
 C                    -1.346    -1.66345  -2.39253 
 H                    -1.9474   -2.57826  -2.26318 
 C                     0.08357  -1.79296  -2.43474 
 H                     0.64619  -1.03725  -3.01083 
 H                    -0.12765   2.62337  -0.73967 
 C                    -5.66042   0.78884   1.31164 
 H                    -5.83505   1.83823   0.9932 
 H                    -6.5895    0.38703   1.75739 
 C                     4.43704  -3.45719   0.12264 
 H                     4.20659  -4.52671   0.30153 
 H                     5.53332  -3.33855   0.01962 
 C                     3.61268  -2.84345  -1.05331 
 H                     3.00638  -3.63591  -1.54563 
 C                    -5.04567  -0.08381   0.18412 
 H                    -5.23768   0.37984  -0.80856 
 O                     4.01748  -2.71277   1.30491 
 O                    -4.63669   0.80472   2.35204 
 Ni                    0.5807   -1.30707  -0.50139 
 Cl                   -0.03861  -3.5593    0.12225 
 C                     4.47738  -2.1722   -2.17546 
 C                     5.41562  -1.08943  -1.60406 
 H                     4.84221  -0.28077  -1.10859 
 H                     6.14202  -1.49821  -0.87059 
 H                     6.00627  -0.62503  -2.42126 
 C                     5.31152  -3.28225  -2.85545 
 H                     4.65915  -4.0742   -3.2814 
 H                     5.91377  -2.85777  -3.68573 
 H                     6.02021  -3.76777  -2.15139 
 C                     3.5461   -1.53237  -3.22475 
 H                     2.94573  -0.71391  -2.78003 
 H                     4.14104  -1.10863  -4.061 
 H                     2.84519  -2.27999  -3.65127 
 C                    -5.59771  -1.55485   0.11733 
 C                    -5.43022  -2.27739   1.47139 
 H                    -4.36161  -2.34859   1.76136 
 H                    -5.98133  -1.77305   2.29242 
 H                    -5.82342  -3.31291   1.40069 
 C                    -4.83156  -2.33643  -0.96901 
 H                    -4.94483  -1.86096  -1.96698 
 H                    -3.75141  -2.3985   -0.72903 
 H                    -5.22355  -3.37183  -1.04763 
 C                    -7.09221  -1.49267  -0.27046 
 H                    -7.23763  -0.97074  -1.24067 
 H                    -7.50295  -2.51829  -0.37641 
 H                    -7.70844  -0.97157   0.49228 
 C                     1.87959   2.33082  -0.03333 
 C                     1.98797   3.71189   0.27938 
 C                     3.03882   1.52925   0.16076 
 C                     3.17288   4.27436   0.77784 
 H                     1.11113   4.364     0.13124 
 C                     4.22442   2.07543   0.65243 
 H                     2.99049   0.46257  -0.10059 
 C                     4.30736   3.45377   0.9731 
 H                     3.20325   5.3485    1.0096 
 H                     5.12023   1.45205   0.79883 
 C                     5.65326   5.26629   1.77737 
 H                     5.49559   5.91963   0.89027 
 H                     4.94923   5.57498   2.58213 
 H                     6.69111   5.39264   2.13833 
 O                     5.50823   3.88843   1.44948 
 H                     0.47604  -2.81813  -2.5231 
 C                    -1.85555   2.14663  -2.55545 
 C                    -3.1384    2.46197  -2.03885 
 C                    -1.12729   3.18098  -3.19991 
 C                    -3.67872   3.74867  -2.18253 
 H                    -3.70839   1.68732  -1.50548 
 C                    -1.66658   4.4691   -3.34244 
 H                    -0.12552   2.95927  -3.60294 
 C                    -2.94686   4.75884  -2.83591 
 H                    -4.67936   3.9685   -1.77732 
 H                    -1.08402   5.25189  -3.85371 
 H                    -3.37195   5.76905  -2.9456 
 
 Stoichiometry    C41H46ClN4Ni2O3(4)
 Framework group  C1[X(C41H46ClN4Ni2O3)]
 Deg. of freedom   285
 Full point group                 C1      NOp   1
 Largest Abelian subgroup         C1      NOp   1
 Largest concise Abelian subgroup C1      NOp   1
                         Standard orientation:                         
 ---------------------------------------------------------------------
 Center     Atomic      Atomic             Coordinates (Angstroms)
 Number     Number       Type             X           Y           Z
 ---------------------------------------------------------------------
      1          6           0        2.464734   -1.122015    3.265032
      2          6           0        1.527412   -0.528225    4.120724
      3          6           0        0.252601   -0.138728    3.622056
      4          6           0       -0.008275   -0.353415    2.211418
      5          6           0        2.138462   -1.287929    1.906103
      6          1           0       -0.634616    0.618372    5.475582
      7          1           0        3.440393   -1.468228    3.634502
      8          1           0        1.756269   -0.384906    5.187974
      9          6           0       -0.805019    0.416101    4.407071
     10          6           0       -2.241436    0.365833    2.460446
     11          6           0       -2.055840    0.655061    3.827095
     12          1           0       -2.898519    1.036817    4.421707
     13          7           0       -1.216255   -0.079887    1.663385
     14          7           0        0.936531   -0.883094    1.396961
     15          6           0        2.965104   -1.962461    0.912356
     16          6           0       -3.502137    0.398069    1.746079
     17          7           0        2.671908   -1.936937   -0.360873
     18          7           0       -3.599788   -0.020209    0.499696
     19         28           0       -1.642204   -0.140562   -0.306126
     20          6           0        0.167607    0.549618   -0.804218
     21          6           0        0.606822    1.815141   -0.536799
     22          6           0       -2.022537   -0.425112   -2.415700
     23          1           0       -3.122358   -0.401036   -2.442324
     24          6           0       -1.255656    0.799828   -2.464969
     25          1           0       -0.302219    0.726306   -3.010254
     26          6           0       -1.346000   -1.663447   -2.392532
     27          1           0       -1.947401   -2.578260   -2.263181
     28          6           0        0.083570   -1.792957   -2.434737
     29          1           0        0.646189   -1.037252   -3.010825
     30          1           0       -0.127648    2.623371   -0.739668
     31          6           0       -5.660417    0.788843    1.311644
     32          1           0       -5.835052    1.838227    0.993199
     33          1           0       -6.589500    0.387026    1.757393
     34          6           0        4.437042   -3.457191    0.122640
     35          1           0        4.206589   -4.526709    0.301526
     36          1           0        5.533324   -3.338551    0.019618
     37          6           0        3.612676   -2.843449   -1.053306
     38          1           0        3.006377   -3.635906   -1.545627
     39          6           0       -5.045668   -0.083814    0.184117
     40          1           0       -5.237675    0.379843   -0.808560
     41          8           0        4.017478   -2.712770    1.304910
     42          8           0       -4.636688    0.804722    2.352044
     43         28           0        0.580696   -1.307073   -0.501392
     44         17           0       -0.038606   -3.559295    0.122247
     45          6           0        4.477384   -2.172199   -2.175461
     46          6           0        5.415622   -1.089431   -1.604060
     47          1           0        4.842206   -0.280769   -1.108593
     48          1           0        6.142018   -1.498211   -0.870592
     49          1           0        6.006273   -0.625033   -2.421260
     50          6           0        5.311522   -3.282247   -2.855449
     51          1           0        4.659152   -4.074200   -3.281396
     52          1           0        5.913773   -2.857774   -3.685725
     53          1           0        6.020208   -3.767768   -2.151393
     54          6           0        3.546095   -1.532371   -3.224750
     55          1           0        2.945726   -0.713912   -2.780027
     56          1           0        4.141040   -1.108630   -4.060995
     57          1           0        2.845194   -2.279986   -3.651270
     58          6           0       -5.597709   -1.554853    0.117328
     59          6           0       -5.430222   -2.277388    1.471388
     60          1           0       -4.361607   -2.348589    1.761357
     61          1           0       -5.981329   -1.773048    2.292422
     62          1           0       -5.823424   -3.312906    1.400693
     63          6           0       -4.831557   -2.336428   -0.969013
     64          1           0       -4.944833   -1.860957   -1.966980
     65          1           0       -3.751405   -2.398496   -0.729032
     66          1           0       -5.223552   -3.371834   -1.047628
     67          6           0       -7.092206   -1.492674   -0.270464
     68          1           0       -7.237633   -0.970742   -1.240666
     69          1           0       -7.502951   -2.518289   -0.376413
     70          1           0       -7.708435   -0.971570    0.492284
     71          6           0        1.879593    2.330821   -0.033326
     72          6           0        1.987970    3.711892    0.279376
     73          6           0        3.038819    1.529251    0.160764
     74          6           0        3.172885    4.274361    0.777842
     75          1           0        1.111130    4.363995    0.131243
     76          6           0        4.224423    2.075430    0.652432
     77          1           0        2.990486    0.462566   -0.100586
     78          6           0        4.307359    3.453772    0.973095
     79          1           0        3.203250    5.348502    1.009595
     80          1           0        5.120227    1.452047    0.798828
     81          6           0        5.653255    5.266286    1.777371
     82          1           0        5.495595    5.919628    0.890273
     83          1           0        4.949228    5.574985    2.582128
     84          1           0        6.691108    5.392640    2.138330
     85          8           0        5.508229    3.888425    1.449483
     86          1           0        0.476044   -2.818127   -2.523104
     87          6           0       -1.855550    2.146628   -2.555453
     88          6           0       -3.138403    2.461969   -2.038851
     89          6           0       -1.127292    3.180984   -3.199907
     90          6           0       -3.678721    3.748670   -2.182526
     91          1           0       -3.708387    1.687318   -1.505481
     92          6           0       -1.666581    4.469101   -3.342435
     93          1           0       -0.125521    2.959271   -3.602938
     94          6           0       -2.946864    4.758839   -2.835905
     95          1           0       -4.679364    3.968500   -1.777315
     96          1           0       -1.084020    5.251888   -3.853708
     97          1           0       -3.371945    5.769054   -2.945599
 ---------------------------------------------------------------------
 Rotational constants (GHZ):           0.0709445           0.0440837           0.0396434
 General basis read from cards:  (5D, 7F)
 ======================================================================================================
                                       Pseudopotential Parameters
 ======================================================================================================
  Center     Atomic      Valence      Angular      Power
  Number     Number     Electrons     Momentum     of R      Exponent        Coefficient   SO-Coeffient
 ======================================================================================================
    1          6
                                   No pseudopotential on this center.
    2          6
                                   No pseudopotential on this center.
    3          6
                                   No pseudopotential on this center.
    4          6
                                   No pseudopotential on this center.
    5          6
                                   No pseudopotential on this center.
    6          1
                                   No pseudopotential on this center.
    7          1
                                   No pseudopotential on this center.
    8          1
                                   No pseudopotential on this center.
    9          6
                                   No pseudopotential on this center.
   10          6
                                   No pseudopotential on this center.
   11          6
                                   No pseudopotential on this center.
   12          1
                                   No pseudopotential on this center.
   13          7
                                   No pseudopotential on this center.
   14          7
                                   No pseudopotential on this center.
   15          6
                                   No pseudopotential on this center.
   16          6
                                   No pseudopotential on this center.
   17          7
                                   No pseudopotential on this center.
   18          7
                                   No pseudopotential on this center.
   19         28           18
                                      D and up 
                                                     1      469.9324331      -10.00000000    0.00000000
                                                     2       85.4236411      -69.40848050    0.00000000
                                                     2       21.2674984      -12.09510200    0.00000000
                                      S - D
                                                     0      162.1686097        3.00000000    0.00000000
                                                     1      176.5333232       22.02536180    0.00000000
                                                     2       68.9562010      443.01810880    0.00000000
                                                     2       13.5792838      145.56964110    0.00000000
                                      P - D
                                                     0       69.0181506        5.00000000    0.00000000
                                                     1      275.5955596        4.98828240    0.00000000
                                                     2       47.1315453      256.69458530    0.00000000
                                                     2       12.9874075       78.47544500    0.00000000
   20          6
                                   No pseudopotential on this center.
   21          6
                                   No pseudopotential on this center.
   22          6
                                   No pseudopotential on this center.
   23          1
                                   No pseudopotential on this center.
   24          6
                                   No pseudopotential on this center.
   25          1
                                   No pseudopotential on this center.
   26          6
                                   No pseudopotential on this center.
   27          1
                                   No pseudopotential on this center.
   28          6
                                   No pseudopotential on this center.
   29          1
                                   No pseudopotential on this center.
   30          1
                                   No pseudopotential on this center.
   31          6
                                   No pseudopotential on this center.
   32          1
                                   No pseudopotential on this center.
   33          1
                                   No pseudopotential on this center.
   34          6
                                   No pseudopotential on this center.
   35          1
                                   No pseudopotential on this center.
   36          1
                                   No pseudopotential on this center.
   37          6
                                   No pseudopotential on this center.
   38          1
                                   No pseudopotential on this center.
   39          6
                                   No pseudopotential on this center.
   40          1
                                   No pseudopotential on this center.
   41          8
                                   No pseudopotential on this center.
   42          8
                                   No pseudopotential on this center.
   43         28           18
                                      D and up 
                                                     1      469.9324331      -10.00000000    0.00000000
                                                     2       85.4236411      -69.40848050    0.00000000
                                                     2       21.2674984      -12.09510200    0.00000000
                                      S - D
                                                     0      162.1686097        3.00000000    0.00000000
                                                     1      176.5333232       22.02536180    0.00000000
                                                     2       68.9562010      443.01810880    0.00000000
                                                     2       13.5792838      145.56964110    0.00000000
                                      P - D
                                                     0       69.0181506        5.00000000    0.00000000
                                                     1      275.5955596        4.98828240    0.00000000
                                                     2       47.1315453      256.69458530    0.00000000
                                                     2       12.9874075       78.47544500    0.00000000
   44         17
                                   No pseudopotential on this center.
   45          6
                                   No pseudopotential on this center.
   46          6
                                   No pseudopotential on this center.
   47          1
                                   No pseudopotential on this center.
   48          1
                                   No pseudopotential on this center.
   49          1
                                   No pseudopotential on this center.
   50          6
                                   No pseudopotential on this center.
   51          1
                                   No pseudopotential on this center.
   52          1
                                   No pseudopotential on this center.
   53          1
                                   No pseudopotential on this center.
   54          6
                                   No pseudopotential on this center.
   55          1
                                   No pseudopotential on this center.
   56          1
                                   No pseudopotential on this center.
   57          1
                                   No pseudopotential on this center.
   58          6
                                   No pseudopotential on this center.
   59          6
                                   No pseudopotential on this center.
   60          1
                                   No pseudopotential on this center.
   61          1
                                   No pseudopotential on this center.
   62          1
                                   No pseudopotential on this center.
   63          6
                                   No pseudopotential on this center.
   64          1
                                   No pseudopotential on this center.
   65          1
                                   No pseudopotential on this center.
   66          1
                                   No pseudopotential on this center.
   67          6
                                   No pseudopotential on this center.
   68          1
                                   No pseudopotential on this center.
   69          1
                                   No pseudopotential on this center.
   70          1
                                   No pseudopotential on this center.
   71          6
                                   No pseudopotential on this center.
   72          6
                                   No pseudopotential on this center.
   73          6
                                   No pseudopotential on this center.
   74          6
                                   No pseudopotential on this center.
   75          1
                                   No pseudopotential on this center.
   76          6
                                   No pseudopotential on this center.
   77          1
                                   No pseudopotential on this center.
   78          6
                                   No pseudopotential on this center.
   79          1
                                   No pseudopotential on this center.
   80          1
                                   No pseudopotential on this center.
   81          6
                                   No pseudopotential on this center.
   82          1
                                   No pseudopotential on this center.
   83          1
                                   No pseudopotential on this center.
   84          1
                                   No pseudopotential on this center.
   85          8
                                   No pseudopotential on this center.
   86          1
                                   No pseudopotential on this center.
   87          6
                                   No pseudopotential on this center.
   88          6
                                   No pseudopotential on this center.
   89          6
                                   No pseudopotential on this center.
   90          6
                                   No pseudopotential on this center.
   91          1
                                   No pseudopotential on this center.
   92          6
                                   No pseudopotential on this center.
   93          1
                                   No pseudopotential on this center.
   94          6
                                   No pseudopotential on this center.
   95          1
                                   No pseudopotential on this center.
   96          1
                                   No pseudopotential on this center.
   97          1
                                   No pseudopotential on this center.
 ======================================================================================================
 There are  2094 symmetry adapted cartesian basis functions of A   symmetry.
 There are  1845 symmetry adapted basis functions of A   symmetry.
  1845 basis functions,  2989 primitive gaussians,  2094 cartesian basis functions
   200 alpha electrons      197 beta electrons
       nuclear repulsion energy      8471.6298116294 Hartrees.
 NAtoms=   97 NActive=   97 NUniq=   97 SFac= 1.00D+00 NAtFMM=   60 NAOKFM=T Big=T
 Integral buffers will be    131072 words long.
 Raffenetti 2 integral format.
 Two-electron integral symmetry is turned on.
 Using the following non-standard input for PCM:
 Eps=4.5
 --- end of non-standard input.
 ------------------------------------------------------------------------------
 Polarizable Continuum Model (PCM)
 =================================
 Model                : PCM.
 Atomic radii         : UFF (Universal Force Field).
 Polarization charges : Total charges.
 Charge compensation  : None.
 Solution method      : On-the-fly selection.
 Cavity type          : Scaled VdW (van der Waals Surface) (Alpha=1.100).
 Cavity algorithm     : GePol (No added spheres)
                        Default sphere list used, NSphG=   97.
                        Lebedev-Laikov grids with approx.  5.0 points / Ang**2.
                        Smoothing algorithm: York/Karplus (Gamma=1.0000).
                        Polarization charges: spherical gaussians, with
                                              point-specific exponents (IZeta= 3).
                        Self-potential: point-specific (ISelfS= 7).
                        Self-field    : sphere-specific E.n sum rule (ISelfD= 2).
 Solvent              : Water, Eps=   4.500000 Eps(inf)=   1.777849
 ------------------------------------------------------------------------------
 One-electron integrals computed using PRISM.
   1 Symmetry operations used in ECPInt.
 ECPInt:  NShTT=  274911 NPrTT=  843013 LenC2=  203626 LenP2D=  407908.
 LDataN:  DoStor=T MaxTD1= 6 Len=  172
 NBasis=  1845 RedAO= T EigKep=  6.21D-06  NBF=  1845
 NBsUse=  1845 1.00D-06 EigRej= -1.00D+00 NBFU=  1845
 ExpMin= 2.40D-02 ExpMax= 6.95D+04 ExpMxC= 2.37D+03 IAcc=3 IRadAn=         5 AccDes= 0.00D+00
 Harris functional with IExCor= 1009 and IRadAn=       5 diagonalized for initial guess.
 HarFok:  IExCor= 1009 AccDes= 0.00D+00 IRadAn=         5 IDoV= 1 UseB2=F ITyADJ=14
 ICtDFT=  3500011 ScaDFX=  1.000000  1.000000  1.000000  1.000000
 FoFCou: FMM=F IPFlag=           0 FMFlag=      100000 FMFlg1=        2001
         NFxFlg=           0 DoJE=T BraDBF=F KetDBF=T FulRan=T
         wScrn=  0.000000 ICntrl=       500 IOpCl=  0 I1Cent=   200000004 NGrid=           0
         NMat0=    1 NMatS0=      1 NMatT0=    0 NMatD0=    1 NMtDS0=    0 NMtDT0=    0
 Petite list used in FoFCou.
 Initial guess <Sx>= 0.0000 <Sy>= 0.0000 <Sz>= 1.5000 <S**2>= 3.7500 S= 1.5000
 Requested convergence on RMS density matrix=1.00D-08 within 128 cycles.
 Requested convergence on MAX density matrix=1.00D-06.
 Requested convergence on             energy=1.00D-06.
 No special actions if energy rises.
 Inv3:  Mode=1 IEnd=   104748843.
 Iteration    1 A*A^-1 deviation from unit magnitude is 3.55D-15 for   4086.
 Iteration    1 A*A^-1 deviation from orthogonality  is 2.22D-15 for   2962    664.
 Iteration    1 A^-1*A deviation from unit magnitude is 3.55D-15 for   4086.
 Iteration    1 A^-1*A deviation from orthogonality  is 2.00D-15 for   4971   2540.
 EnCoef did    42 forward-backward iterations
 EnCoef did   100 forward-backward iterations
 EnCoef did     4 forward-backward iterations
 EnCoef did     3 forward-backward iterations
 EnCoef did     3 forward-backward iterations
 EnCoef did     2 forward-backward iterations
 EnCoef did     2 forward-backward iterations
 Restarting incremental Fock formation.
 Error on total polarization charges =  0.01766
 SCF Done:  E(UM06L) =  -2834.17814189     A.U. after   34 cycles
            NFock= 34  Conv=0.24D-08     -V/T= 2.0518
 <Sx>= 0.0000 <Sy>= 0.0000 <Sz>= 1.5000 <S**2>= 3.8629 S= 1.5280
 <L.S>=  0.00000000000    
 Annihilation of the first spin contaminant:
 S**2 before annihilation     3.8629,   after     3.7548

 **********************************************************************

            Population analysis using the SCF Density.

 **********************************************************************

 Orbital symmetries:
 Alpha Orbitals:
       Occupied  (A) (A) (A) (A) (A) (A) (A) (A) (A) (A) (A) (A)
                 (A) (A) (A) (A) (A) (A) (A) (A) (A) (A) (A) (A)
                 (A) (A) (A) (A) (A) (A) (A) (A) (A) (A) (A) (A)
                 (A) (A) (A) (A) (A) (A) (A) (A) (A) (A) (A) (A)
                 (A) (A) (A) (A) (A) (A) (A) (A) (A) (A) (A) (A)
                 (A) (A) (A) (A) (A) (A) (A) (A) (A) (A) (A) (A)
                 (A) (A) (A) (A) (A) (A) (A) (A) (A) (A) (A) (A)
                 (A) (A) (A) (A) (A) (A) (A) (A) (A) (A) (A) (A)
                 (A) (A) (A) (A) (A) (A) (A) (A) (A) (A) (A) (A)
                 (A) (A) (A) (A) (A) (A) (A) (A) (A) (A) (A) (A)
                 (A) (A) (A) (A) (A) (A) (A) (A) (A) (A) (A) (A)
                 (A) (A) (A) (A) (A) (A) (A) (A) (A) (A) (A) (A)
                 (A) (A) (A) (A) (A) (A) (A) (A) (A) (A) (A) (A)
                 (A) (A) (A) (A) (A) (A) (A) (A) (A) (A) (A) (A)
                 (A) (A) (A) (A) (A) (A) (A) (A) (A) (A) (A) (A)
                 (A) (A) (A) (A) (A) (A) (A) (A) (A) (A) (A) (A)
                 (A) (A) (A) (A) (A) (A) (A) (A)
       Virtual   (A) (A) (A) (A) (A) (A) (A) (A) (A) (A) (A) (A)
                 (A) (A) (A) (A) (A) (A) (A) (A) (A) (A) (A) (A)
                 (A) (A) (A) (A) (A) (A) (A) (A) (A) (A) (A) (A)
                 (A) (A) (A) (A) (A) (A) (A) (A) (A) (A) (A) (A)
                 (A) (A) (A) (A) (A) (A) (A) (A) (A) (A) (A) (A)
                 (A) (A) (A) (A) (A) (A) (A) (A) (A) (A) (A) (A)
                 (A) (A) (A) (A) (A) (A) (A) (A) (A) (A) (A) (A)
                 (A) (A) (A) (A) (A) (A) (A) (A) (A) (A) (A) (A)
                 (A) (A) (A) (A) (A) (A) (A) (A) (A) (A) (A) (A)
                 (A) (A) (A) (A) (A) (A) (A) (A) (A) (A) (A) (A)
                 (A) (A) (A) (A) (A) (A) (A) (A) (A) (A) (A) (A)
                 (A) (A) (A) (A) (A) (A) (A) (A) (A) (A) (A) (A)
                 (A) (A) (A) (A) (A) (A) (A) (A) (A) (A) (A) (A)
                 (A) (A) (A) (A) (A) (A) (A) (A) (A) (A) (A) (A)
                 (A) (A) (A) (A) (A) (A) (A) (A) (A) (A) (A) (A)
                 (A) (A) (A) (A) (A) (A) (A) (A) (A) (A) (A) (A)
                 (A) (A) (A) (A) (A) (A) (A) (A) (A) (A) (A) (A)
                 (A) (A) (A) (A) (A) (A) (A) (A) (A) (A) (A) (A)
                 (A) (A) (A) (A) (A) (A) (A) (A) (A) (A) (A) (A)
                 (A) (A) (A) (A) (A) (A) (A) (A) (A) (A) (A) (A)
                 (A) (A) (A) (A) (A) (A) (A) (A) (A) (A) (A) (A)
                 (A) (A) (A) (A) (A) (A) (A) (A) (A) (A) (A) (A)
                 (A) (A) (A) (A) (A) (A) (A) (A) (A) (A) (A) (A)
                 (A) (A) (A) (A) (A) (A) (A) (A) (A) (A) (A) (A)
                 (A) (A) (A) (A) (A) (A) (A) (A) (A) (A) (A) (A)
                 (A) (A) (A) (A) (A) (A) (A) (A) (A) (A) (A) (A)
                 (A) (A) (A) (A) (A) (A) (A) (A) (A) (A) (A) (A)
                 (A) (A) (A) (A) (A) (A) (A) (A) (A) (A) (A) (A)
                 (A) (A) (A) (A) (A) (A) (A) (A) (A) (A) (A) (A)
                 (A) (A) (A) (A) (A) (A) (A) (A) (A) (A) (A) (A)
                 (A) (A) (A) (A) (A) (A) (A) (A) (A) (A) (A) (A)
                 (A) (A) (A) (A) (A) (A) (A) (A) (A) (A) (A) (A)
                 (A) (A) (A) (A) (A) (A) (A) (A) (A) (A) (A) (A)
                 (A) (A) (A) (A) (A) (A) (A) (A) (A) (A) (A) (A)
                 (A) (A) (A) (A) (A) (A) (A) (A) (A) (A) (A) (A)
                 (A) (A) (A) (A) (A) (A) (A) (A) (A) (A) (A) (A)
                 (A) (A) (A) (A) (A) (A) (A) (A) (A) (A) (A) (A)
                 (A) (A) (A) (A) (A) (A) (A) (A) (A) (A) (A) (A)
                 (A) (A) (A) (A) (A) (A) (A) (A) (A) (A) (A) (A)
                 (A) (A) (A) (A) (A) (A) (A) (A) (A) (A) (A) (A)
                 (A) (A) (A) (A) (A) (A) (A) (A) (A) (A) (A) (A)
                 (A) (A) (A) (A) (A) (A) (A) (A) (A) (A) (A) (A)
                 (A) (A) (A) (A) (A) (A) (A) (A) (A) (A) (A) (A)
                 (A) (A) (A) (A) (A) (A) (A) (A) (A) (A) (A) (A)
                 (A) (A) (A) (A) (A) (A) (A) (A) (A) (A) (A) (A)
                 (A) (A) (A) (A) (A) (A) (A) (A) (A) (A) (A) (A)
                 (A) (A) (A) (A) (A) (A) (A) (A) (A) (A) (A) (A)
                 (A) (A) (A) (A) (A) (A) (A) (A) (A) (A) (A) (A)
                 (A) (A) (A) (A) (A) (A) (A) (A) (A) (A) (A) (A)
                 (A) (A) (A) (A) (A) (A) (A) (A) (A) (A) (A) (A)
                 (A) (A) (A) (A) (A) (A) (A) (A) (A) (A) (A) (A)
                 (A) (A) (A) (A) (A) (A) (A) (A) (A) (A) (A) (A)
                 (A) (A) (A) (A) (A) (A) (A) (A) (A) (A) (A) (A)
                 (A) (A) (A) (A) (A) (A) (A) (A) (A) (A) (A) (A)
                 (A) (A) (A) (A) (A) (A) (A) (A) (A) (A) (A) (A)
                 (A) (A) (A) (A) (A) (A) (A) (A) (A) (A) (A) (A)
                 (A) (A) (A) (A) (A) (A) (A) (A) (A) (A) (A) (A)
                 (A) (A) (A) (A) (A) (A) (A) (A) (A) (A) (A) (A)
                 (A) (A) (A) (A) (A) (A) (A) (A) (A) (A) (A) (A)
                 (A) (A) (A) (A) (A) (A) (A) (A) (A) (A) (A) (A)
                 (A) (A) (A) (A) (A) (A) (A) (A) (A) (A) (A) (A)
                 (A) (A) (A) (A) (A) (A) (A) (A) (A) (A) (A) (A)
                 (A) (A) (A) (A) (A) (A) (A) (A) (A) (A) (A) (A)
                 (A) (A) (A) (A) (A) (A) (A) (A) (A) (A) (A) (A)
                 (A) (A) (A) (A) (A) (A) (A) (A) (A) (A) (A) (A)
                 (A) (A) (A) (A) (A) (A) (A) (A) (A) (A) (A) (A)
                 (A) (A) (A) (A) (A) (A) (A) (A) (A) (A) (A) (A)
                 (A) (A) (A) (A) (A) (A) (A) (A) (A) (A) (A) (A)
                 (A) (A) (A) (A) (A) (A) (A) (A) (A) (A) (A) (A)
                 (A) (A) (A) (A) (A) (A) (A) (A) (A) (A) (A) (A)
                 (A) (A) (A) (A) (A) (A) (A) (A) (A) (A) (A) (A)
                 (A) (A) (A) (A) (A) (A) (A) (A) (A) (A) (A) (A)
                 (A) (A) (A) (A) (A) (A) (A) (A) (A) (A) (A) (A)
                 (A) (A) (A) (A) (A) (A) (A) (A) (A) (A) (A) (A)
                 (A) (A) (A) (A) (A) (A) (A) (A) (A) (A) (A) (A)
                 (A) (A) (A) (A) (A) (A) (A) (A) (A) (A) (A) (A)
                 (A) (A) (A) (A) (A) (A) (A) (A) (A) (A) (A) (A)
                 (A) (A) (A) (A) (A) (A) (A) (A) (A) (A) (A) (A)
                 (A) (A) (A) (A) (A) (A) (A) (A) (A) (A) (A) (A)
                 (A) (A) (A) (A) (A) (A) (A) (A) (A) (A) (A) (A)
                 (A) (A) (A) (A) (A) (A) (A) (A) (A) (A) (A) (A)
                 (A) (A) (A) (A) (A) (A) (A) (A) (A) (A) (A) (A)
                 (A) (A) (A) (A) (A) (A) (A) (A) (A) (A) (A) (A)
                 (A) (A) (A) (A) (A) (A) (A) (A) (A) (A) (A) (A)
                 (A) (A) (A) (A) (A) (A) (A) (A) (A) (A) (A) (A)
                 (A) (A) (A) (A) (A) (A) (A) (A) (A) (A) (A) (A)
                 (A) (A) (A) (A) (A) (A) (A) (A) (A) (A) (A) (A)
                 (A) (A) (A) (A) (A) (A) (A) (A) (A) (A) (A) (A)
                 (A) (A) (A) (A) (A) (A) (A) (A) (A) (A) (A) (A)
                 (A) (A) (A) (A) (A) (A) (A) (A) (A) (A) (A) (A)
                 (A) (A) (A) (A) (A) (A) (A) (A) (A) (A) (A) (A)
                 (A) (A) (A) (A) (A) (A) (A) (A) (A) (A) (A) (A)
                 (A) (A) (A) (A) (A) (A) (A) (A) (A) (A) (A) (A)
                 (A) (A) (A) (A) (A) (A) (A) (A) (A) (A) (A) (A)
                 (A) (A) (A) (A) (A) (A) (A) (A) (A) (A) (A) (A)
                 (A) (A) (A) (A) (A) (A) (A) (A) (A) (A) (A) (A)
                 (A) (A) (A) (A) (A) (A) (A) (A) (A) (A) (A) (A)
                 (A) (A) (A) (A) (A) (A) (A) (A) (A) (A) (A) (A)
                 (A) (A) (A) (A) (A) (A) (A) (A) (A) (A) (A) (A)
                 (A) (A) (A) (A) (A) (A) (A) (A) (A) (A) (A) (A)
                 (A) (A) (A) (A) (A) (A) (A) (A) (A) (A) (A) (A)
                 (A) (A) (A) (A) (A) (A) (A) (A) (A) (A) (A) (A)
                 (A) (A) (A) (A) (A) (A) (A) (A) (A) (A) (A) (A)
                 (A) (A) (A) (A) (A) (A) (A) (A) (A) (A) (A) (A)
                 (A) (A) (A) (A) (A) (A) (A) (A) (A) (A) (A) (A)
                 (A) (A) (A) (A) (A) (A) (A) (A) (A) (A) (A) (A)
                 (A) (A) (A) (A) (A) (A) (A) (A) (A) (A) (A) (A)
                 (A) (A) (A) (A) (A) (A) (A) (A) (A) (A) (A) (A)
                 (A) (A) (A) (A) (A) (A) (A) (A) (A) (A) (A) (A)
                 (A) (A) (A) (A) (A) (A) (A) (A) (A) (A) (A) (A)
                 (A) (A) (A) (A) (A) (A) (A) (A) (A) (A) (A) (A)
                 (A) (A) (A) (A) (A) (A) (A) (A) (A) (A) (A) (A)
                 (A) (A) (A) (A) (A) (A) (A) (A) (A) (A) (A) (A)
                 (A) (A) (A) (A) (A) (A) (A) (A) (A) (A) (A) (A)
                 (A) (A) (A) (A) (A) (A) (A) (A) (A) (A) (A) (A)
                 (A) (A) (A) (A) (A) (A) (A) (A) (A) (A) (A) (A)
                 (A) (A) (A) (A) (A) (A) (A) (A) (A) (A) (A) (A)
                 (A) (A) (A) (A) (A) (A) (A) (A) (A) (A) (A) (A)
                 (A) (A) (A) (A) (A) (A) (A) (A) (A) (A) (A) (A)
                 (A) (A) (A) (A) (A) (A) (A) (A) (A) (A) (A) (A)
                 (A) (A) (A) (A) (A) (A) (A) (A) (A) (A) (A) (A)
                 (A) (A) (A) (A) (A) (A) (A) (A) (A) (A) (A) (A)
                 (A) (A) (A) (A) (A) (A) (A) (A) (A) (A) (A) (A)
                 (A) (A) (A) (A) (A) (A) (A) (A) (A) (A) (A) (A)
                 (A) (A) (A) (A) (A) (A) (A) (A) (A) (A) (A) (A)
                 (A) (A) (A) (A) (A) (A) (A) (A) (A) (A) (A) (A)
                 (A) (A) (A) (A) (A) (A) (A) (A) (A) (A) (A) (A)
                 (A) (A) (A) (A) (A) (A) (A) (A) (A) (A) (A) (A)
                 (A) (A) (A) (A) (A) (A) (A) (A) (A) (A) (A) (A)
                 (A) (A) (A) (A) (A) (A) (A) (A) (A) (A) (A) (A)
                 (A) (A) (A) (A) (A) (A) (A) (A) (A) (A) (A) (A)
                 (A) (A) (A) (A) (A) (A) (A) (A) (A) (A) (A) (A)
                 (A) (A) (A) (A) (A) (A) (A) (A) (A) (A) (A) (A)
                 (A) (A) (A) (A) (A) (A) (A) (A) (A) (A) (A) (A)
                 (A) (A) (A) (A) (A) (A) (A) (A) (A) (A) (A) (A)
                 (A) (A) (A) (A) (A) (A) (A) (A) (A) (A) (A) (A)
                 (A) (A) (A) (A) (A) (A) (A) (A) (A) (A) (A) (A)
                 (A)
 Beta  Orbitals:
       Occupied  (A) (A) (A) (A) (A) (A) (A) (A) (A) (A) (A) (A)
                 (A) (A) (A) (A) (A) (A) (A) (A) (A) (A) (A) (A)
                 (A) (A) (A) (A) (A) (A) (A) (A) (A) (A) (A) (A)
                 (A) (A) (A) (A) (A) (A) (A) (A) (A) (A) (A) (A)
                 (A) (A) (A) (A) (A) (A) (A) (A) (A) (A) (A) (A)
                 (A) (A) (A) (A) (A) (A) (A) (A) (A) (A) (A) (A)
                 (A) (A) (A) (A) (A) (A) (A) (A) (A) (A) (A) (A)
                 (A) (A) (A) (A) (A) (A) (A) (A) (A) (A) (A) (A)
                 (A) (A) (A) (A) (A) (A) (A) (A) (A) (A) (A) (A)
                 (A) (A) (A) (A) (A) (A) (A) (A) (A) (A) (A) (A)
                 (A) (A) (A) (A) (A) (A) (A) (A) (A) (A) (A) (A)
                 (A) (A) (A) (A) (A) (A) (A) (A) (A) (A) (A) (A)
                 (A) (A) (A) (A) (A) (A) (A) (A) (A) (A) (A) (A)
                 (A) (A) (A) (A) (A) (A) (A) (A) (A) (A) (A) (A)
                 (A) (A) (A) (A) (A) (A) (A) (A) (A) (A) (A) (A)
                 (A) (A) (A) (A) (A) (A) (A) (A) (A) (A) (A) (A)
                 (A) (A) (A) (A) (A)
       Virtual   (A) (A) (A) (A) (A) (A) (A) (A) (A) (A) (A) (A)
                 (A) (A) (A) (A) (A) (A) (A) (A) (A) (A) (A) (A)
                 (A) (A) (A) (A) (A) (A) (A) (A) (A) (A) (A) (A)
                 (A) (A) (A) (A) (A) (A) (A) (A) (A) (A) (A) (A)
                 (A) (A) (A) (A) (A) (A) (A) (A) (A) (A) (A) (A)
                 (A) (A) (A) (A) (A) (A) (A) (A) (A) (A) (A) (A)
                 (A) (A) (A) (A) (A) (A) (A) (A) (A) (A) (A) (A)
                 (A) (A) (A) (A) (A) (A) (A) (A) (A) (A) (A) (A)
                 (A) (A) (A) (A) (A) (A) (A) (A) (A) (A) (A) (A)
                 (A) (A) (A) (A) (A) (A) (A) (A) (A) (A) (A) (A)
                 (A) (A) (A) (A) (A) (A) (A) (A) (A) (A) (A) (A)
                 (A) (A) (A) (A) (A) (A) (A) (A) (A) (A) (A) (A)
                 (A) (A) (A) (A) (A) (A) (A) (A) (A) (A) (A) (A)
                 (A) (A) (A) (A) (A) (A) (A) (A) (A) (A) (A) (A)
                 (A) (A) (A) (A) (A) (A) (A) (A) (A) (A) (A) (A)
                 (A) (A) (A) (A) (A) (A) (A) (A) (A) (A) (A) (A)
                 (A) (A) (A) (A) (A) (A) (A) (A) (A) (A) (A) (A)
                 (A) (A) (A) (A) (A) (A) (A) (A) (A) (A) (A) (A)
                 (A) (A) (A) (A) (A) (A) (A) (A) (A) (A) (A) (A)
                 (A) (A) (A) (A) (A) (A) (A) (A) (A) (A) (A) (A)
                 (A) (A) (A) (A) (A) (A) (A) (A) (A) (A) (A) (A)
                 (A) (A) (A) (A) (A) (A) (A) (A) (A) (A) (A) (A)
                 (A) (A) (A) (A) (A) (A) (A) (A) (A) (A) (A) (A)
                 (A) (A) (A) (A) (A) (A) (A) (A) (A) (A) (A) (A)
                 (A) (A) (A) (A) (A) (A) (A) (A) (A) (A) (A) (A)
                 (A) (A) (A) (A) (A) (A) (A) (A) (A) (A) (A) (A)
                 (A) (A) (A) (A) (A) (A) (A) (A) (A) (A) (A) (A)
                 (A) (A) (A) (A) (A) (A) (A) (A) (A) (A) (A) (A)
                 (A) (A) (A) (A) (A) (A) (A) (A) (A) (A) (A) (A)
                 (A) (A) (A) (A) (A) (A) (A) (A) (A) (A) (A) (A)
                 (A) (A) (A) (A) (A) (A) (A) (A) (A) (A) (A) (A)
                 (A) (A) (A) (A) (A) (A) (A) (A) (A) (A) (A) (A)
                 (A) (A) (A) (A) (A) (A) (A) (A) (A) (A) (A) (A)
                 (A) (A) (A) (A) (A) (A) (A) (A) (A) (A) (A) (A)
                 (A) (A) (A) (A) (A) (A) (A) (A) (A) (A) (A) (A)
                 (A) (A) (A) (A) (A) (A) (A) (A) (A) (A) (A) (A)
                 (A) (A) (A) (A) (A) (A) (A) (A) (A) (A) (A) (A)
                 (A) (A) (A) (A) (A) (A) (A) (A) (A) (A) (A) (A)
                 (A) (A) (A) (A) (A) (A) (A) (A) (A) (A) (A) (A)
                 (A) (A) (A) (A) (A) (A) (A) (A) (A) (A) (A) (A)
                 (A) (A) (A) (A) (A) (A) (A) (A) (A) (A) (A) (A)
                 (A) (A) (A) (A) (A) (A) (A) (A) (A) (A) (A) (A)
                 (A) (A) (A) (A) (A) (A) (A) (A) (A) (A) (A) (A)
                 (A) (A) (A) (A) (A) (A) (A) (A) (A) (A) (A) (A)
                 (A) (A) (A) (A) (A) (A) (A) (A) (A) (A) (A) (A)
                 (A) (A) (A) (A) (A) (A) (A) (A) (A) (A) (A) (A)
                 (A) (A) (A) (A) (A) (A) (A) (A) (A) (A) (A) (A)
                 (A) (A) (A) (A) (A) (A) (A) (A) (A) (A) (A) (A)
                 (A) (A) (A) (A) (A) (A) (A) (A) (A) (A) (A) (A)
                 (A) (A) (A) (A) (A) (A) (A) (A) (A) (A) (A) (A)
                 (A) (A) (A) (A) (A) (A) (A) (A) (A) (A) (A) (A)
                 (A) (A) (A) (A) (A) (A) (A) (A) (A) (A) (A) (A)
                 (A) (A) (A) (A) (A) (A) (A) (A) (A) (A) (A) (A)
                 (A) (A) (A) (A) (A) (A) (A) (A) (A) (A) (A) (A)
                 (A) (A) (A) (A) (A) (A) (A) (A) (A) (A) (A) (A)
                 (A) (A) (A) (A) (A) (A) (A) (A) (A) (A) (A) (A)
                 (A) (A) (A) (A) (A) (A) (A) (A) (A) (A) (A) (A)
                 (A) (A) (A) (A) (A) (A) (A) (A) (A) (A) (A) (A)
                 (A) (A) (A) (A) (A) (A) (A) (A) (A) (A) (A) (A)
                 (A) (A) (A) (A) (A) (A) (A) (A) (A) (A) (A) (A)
                 (A) (A) (A) (A) (A) (A) (A) (A) (A) (A) (A) (A)
                 (A) (A) (A) (A) (A) (A) (A) (A) (A) (A) (A) (A)
                 (A) (A) (A) (A) (A) (A) (A) (A) (A) (A) (A) (A)
                 (A) (A) (A) (A) (A) (A) (A) (A) (A) (A) (A) (A)
                 (A) (A) (A) (A) (A) (A) (A) (A) (A) (A) (A) (A)
                 (A) (A) (A) (A) (A) (A) (A) (A) (A) (A) (A) (A)
                 (A) (A) (A) (A) (A) (A) (A) (A) (A) (A) (A) (A)
                 (A) (A) (A) (A) (A) (A) (A) (A) (A) (A) (A) (A)
                 (A) (A) (A) (A) (A) (A) (A) (A) (A) (A) (A) (A)
                 (A) (A) (A) (A) (A) (A) (A) (A) (A) (A) (A) (A)
                 (A) (A) (A) (A) (A) (A) (A) (A) (A) (A) (A) (A)
                 (A) (A) (A) (A) (A) (A) (A) (A) (A) (A) (A) (A)
                 (A) (A) (A) (A) (A) (A) (A) (A) (A) (A) (A) (A)
                 (A) (A) (A) (A) (A) (A) (A) (A) (A) (A) (A) (A)
                 (A) (A) (A) (A) (A) (A) (A) (A) (A) (A) (A) (A)
                 (A) (A) (A) (A) (A) (A) (A) (A) (A) (A) (A) (A)
                 (A) (A) (A) (A) (A) (A) (A) (A) (A) (A) (A) (A)
                 (A) (A) (A) (A) (A) (A) (A) (A) (A) (A) (A) (A)
                 (A) (A) (A) (A) (A) (A) (A) (A) (A) (A) (A) (A)
                 (A) (A) (A) (A) (A) (A) (A) (A) (A) (A) (A) (A)
                 (A) (A) (A) (A) (A) (A) (A) (A) (A) (A) (A) (A)
                 (A) (A) (A) (A) (A) (A) (A) (A) (A) (A) (A) (A)
                 (A) (A) (A) (A) (A) (A) (A) (A) (A) (A) (A) (A)
                 (A) (A) (A) (A) (A) (A) (A) (A) (A) (A) (A) (A)
                 (A) (A) (A) (A) (A) (A) (A) (A) (A) (A) (A) (A)
                 (A) (A) (A) (A) (A) (A) (A) (A) (A) (A) (A) (A)
                 (A) (A) (A) (A) (A) (A) (A) (A) (A) (A) (A) (A)
                 (A) (A) (A) (A) (A) (A) (A) (A) (A) (A) (A) (A)
                 (A) (A) (A) (A) (A) (A) (A) (A) (A) (A) (A) (A)
                 (A) (A) (A) (A) (A) (A) (A) (A) (A) (A) (A) (A)
                 (A) (A) (A) (A) (A) (A) (A) (A) (A) (A) (A) (A)
                 (A) (A) (A) (A) (A) (A) (A) (A) (A) (A) (A) (A)
                 (A) (A) (A) (A) (A) (A) (A) (A) (A) (A) (A) (A)
                 (A) (A) (A) (A) (A) (A) (A) (A) (A) (A) (A) (A)
                 (A) (A) (A) (A) (A) (A) (A) (A) (A) (A) (A) (A)
                 (A) (A) (A) (A) (A) (A) (A) (A) (A) (A) (A) (A)
                 (A) (A) (A) (A) (A) (A) (A) (A) (A) (A) (A) (A)
                 (A) (A) (A) (A) (A) (A) (A) (A) (A) (A) (A) (A)
                 (A) (A) (A) (A) (A) (A) (A) (A) (A) (A) (A) (A)
                 (A) (A) (A) (A) (A) (A) (A) (A) (A) (A) (A) (A)
                 (A) (A) (A) (A) (A) (A) (A) (A) (A) (A) (A) (A)
                 (A) (A) (A) (A) (A) (A) (A) (A) (A) (A) (A) (A)
                 (A) (A) (A) (A) (A) (A) (A) (A) (A) (A) (A) (A)
                 (A) (A) (A) (A) (A) (A) (A) (A) (A) (A) (A) (A)
                 (A) (A) (A) (A) (A) (A) (A) (A) (A) (A) (A) (A)
                 (A) (A) (A) (A) (A) (A) (A) (A) (A) (A) (A) (A)
                 (A) (A) (A) (A) (A) (A) (A) (A) (A) (A) (A) (A)
                 (A) (A) (A) (A) (A) (A) (A) (A) (A) (A) (A) (A)
                 (A) (A) (A) (A) (A) (A) (A) (A) (A) (A) (A) (A)
                 (A) (A) (A) (A) (A) (A) (A) (A) (A) (A) (A) (A)
                 (A) (A) (A) (A) (A) (A) (A) (A) (A) (A) (A) (A)
                 (A) (A) (A) (A) (A) (A) (A) (A) (A) (A) (A) (A)
                 (A) (A) (A) (A) (A) (A) (A) (A) (A) (A) (A) (A)
                 (A) (A) (A) (A) (A) (A) (A) (A) (A) (A) (A) (A)
                 (A) (A) (A) (A) (A) (A) (A) (A) (A) (A) (A) (A)
                 (A) (A) (A) (A) (A) (A) (A) (A) (A) (A) (A) (A)
                 (A) (A) (A) (A) (A) (A) (A) (A) (A) (A) (A) (A)
                 (A) (A) (A) (A) (A) (A) (A) (A) (A) (A) (A) (A)
                 (A) (A) (A) (A) (A) (A) (A) (A) (A) (A) (A) (A)
                 (A) (A) (A) (A) (A) (A) (A) (A) (A) (A) (A) (A)
                 (A) (A) (A) (A) (A) (A) (A) (A) (A) (A) (A) (A)
                 (A) (A) (A) (A) (A) (A) (A) (A) (A) (A) (A) (A)
                 (A) (A) (A) (A) (A) (A) (A) (A) (A) (A) (A) (A)
                 (A) (A) (A) (A) (A) (A) (A) (A) (A) (A) (A) (A)
                 (A) (A) (A) (A) (A) (A) (A) (A) (A) (A) (A) (A)
                 (A) (A) (A) (A) (A) (A) (A) (A) (A) (A) (A) (A)
                 (A) (A) (A) (A) (A) (A) (A) (A) (A) (A) (A) (A)
                 (A) (A) (A) (A) (A) (A) (A) (A) (A) (A) (A) (A)
                 (A) (A) (A) (A) (A) (A) (A) (A) (A) (A) (A) (A)
                 (A) (A) (A) (A) (A) (A) (A) (A) (A) (A) (A) (A)
                 (A) (A) (A) (A) (A) (A) (A) (A) (A) (A) (A) (A)
                 (A) (A) (A) (A) (A) (A) (A) (A) (A) (A) (A) (A)
                 (A) (A) (A) (A) (A) (A) (A) (A) (A) (A) (A) (A)
                 (A) (A) (A) (A) (A) (A) (A) (A) (A) (A) (A) (A)
                 (A) (A) (A) (A) (A) (A) (A) (A) (A) (A) (A) (A)
                 (A) (A) (A) (A) (A) (A) (A) (A) (A) (A) (A) (A)
                 (A) (A) (A) (A) (A) (A) (A) (A) (A) (A) (A) (A)
                 (A) (A) (A) (A)
 The electronic state is 4-A.
 Alpha  occ. eigenvalues -- -101.06906 -19.02502 -19.01682 -19.00612 -14.19597
 Alpha  occ. eigenvalues --  -14.19069 -14.18357 -14.17721 -10.15713 -10.15046
 Alpha  occ. eigenvalues --  -10.13193 -10.12393 -10.11740 -10.11594 -10.10869
 Alpha  occ. eigenvalues --  -10.10498 -10.10380 -10.10350 -10.09495 -10.09373
 Alpha  occ. eigenvalues --  -10.08539 -10.07788 -10.07672 -10.07407 -10.07345
 Alpha  occ. eigenvalues --  -10.07221 -10.07118 -10.06980 -10.06972 -10.06675
 Alpha  occ. eigenvalues --  -10.06627 -10.06609 -10.06587 -10.06552 -10.06509
 Alpha  occ. eigenvalues --  -10.06300 -10.06258 -10.05877 -10.05609 -10.05456
 Alpha  occ. eigenvalues --  -10.05412 -10.04862 -10.04777 -10.04560 -10.04341
 Alpha  occ. eigenvalues --  -10.04326 -10.04305 -10.04246 -10.04051  -9.29895
 Alpha  occ. eigenvalues --   -7.00282  -7.00043  -7.00001  -4.03325  -4.02915
 Alpha  occ. eigenvalues --   -2.63371  -2.62014  -2.61955  -2.61867  -2.60329
 Alpha  occ. eigenvalues --   -2.59912  -1.07627  -1.06755  -1.04248  -0.94903
 Alpha  occ. eigenvalues --   -0.90276  -0.88279  -0.87250  -0.82871  -0.81518
 Alpha  occ. eigenvalues --   -0.79517  -0.79215  -0.78757  -0.78573  -0.75875
 Alpha  occ. eigenvalues --   -0.74821  -0.74472  -0.73551  -0.72719  -0.71697
 Alpha  occ. eigenvalues --   -0.71271  -0.70354  -0.68997  -0.67791  -0.66996
 Alpha  occ. eigenvalues --   -0.65609  -0.65022  -0.64962  -0.64886  -0.64802
 Alpha  occ. eigenvalues --   -0.64412  -0.62958  -0.61331  -0.61136  -0.60673
 Alpha  occ. eigenvalues --   -0.58602  -0.57678  -0.57441  -0.56472  -0.56078
 Alpha  occ. eigenvalues --   -0.55571  -0.55372  -0.52294  -0.51255  -0.50338
 Alpha  occ. eigenvalues --   -0.50144  -0.50023  -0.49303  -0.49146  -0.48449
 Alpha  occ. eigenvalues --   -0.47812  -0.47034  -0.46384  -0.46093  -0.45655
 Alpha  occ. eigenvalues --   -0.45034  -0.44724  -0.43262  -0.43066  -0.43021
 Alpha  occ. eigenvalues --   -0.42658  -0.42307  -0.41993  -0.41871  -0.41742
 Alpha  occ. eigenvalues --   -0.41081  -0.40931  -0.40808  -0.40660  -0.40518
 Alpha  occ. eigenvalues --   -0.39924  -0.39743  -0.39617  -0.39219  -0.38960
 Alpha  occ. eigenvalues --   -0.38810  -0.38660  -0.38284  -0.37718  -0.37681
 Alpha  occ. eigenvalues --   -0.37360  -0.37125  -0.36852  -0.35792  -0.35554
 Alpha  occ. eigenvalues --   -0.35349  -0.35078  -0.34947  -0.34795  -0.34693
 Alpha  occ. eigenvalues --   -0.34556  -0.34060  -0.33949  -0.33847  -0.33685
 Alpha  occ. eigenvalues --   -0.33419  -0.33283  -0.33216  -0.33022  -0.32781
 Alpha  occ. eigenvalues --   -0.32448  -0.32183  -0.32005  -0.31720  -0.31379
 Alpha  occ. eigenvalues --   -0.31156  -0.31055  -0.31041  -0.30753  -0.30432
 Alpha  occ. eigenvalues --   -0.29985  -0.29681  -0.29550  -0.29470  -0.29229
 Alpha  occ. eigenvalues --   -0.29052  -0.27839  -0.27017  -0.26021  -0.25855
 Alpha  occ. eigenvalues --   -0.25470  -0.25272  -0.24328  -0.24032  -0.23755
 Alpha  occ. eigenvalues --   -0.23609  -0.23232  -0.23188  -0.22896  -0.22289
 Alpha  occ. eigenvalues --   -0.22068  -0.21345  -0.21140  -0.20713  -0.20447
 Alpha  occ. eigenvalues --   -0.19623  -0.18351  -0.17409  -0.15632  -0.13442
 Alpha virt. eigenvalues --   -0.09687  -0.08989  -0.07616  -0.04918  -0.04643
 Alpha virt. eigenvalues --   -0.04238  -0.03837  -0.03581  -0.02365   0.00497
 Alpha virt. eigenvalues --    0.01286   0.01529   0.01692   0.02252   0.02405
 Alpha virt. eigenvalues --    0.03228   0.03675   0.04005   0.04536   0.04921
 Alpha virt. eigenvalues --    0.05037   0.05496   0.05559   0.05989   0.06069
 Alpha virt. eigenvalues --    0.06249   0.06614   0.06756   0.07015   0.07233
 Alpha virt. eigenvalues --    0.07455   0.07649   0.07814   0.08243   0.08455
 Alpha virt. eigenvalues --    0.08918   0.09116   0.09349   0.09393   0.09775
 Alpha virt. eigenvalues --    0.09915   0.10148   0.10222   0.10431   0.10745
 Alpha virt. eigenvalues --    0.10906   0.11212   0.11323   0.11432   0.11582
 Alpha virt. eigenvalues --    0.11824   0.12148   0.12216   0.12334   0.12443
 Alpha virt. eigenvalues --    0.12613   0.12689   0.12952   0.13061   0.13302
 Alpha virt. eigenvalues --    0.13589   0.13695   0.13836   0.14061   0.14516
 Alpha virt. eigenvalues --    0.14573   0.14795   0.14859   0.15187   0.15489
 Alpha virt. eigenvalues --    0.15556   0.15640   0.15952   0.16185   0.16466
 Alpha virt. eigenvalues --    0.16731   0.16853   0.16924   0.17413   0.17518
 Alpha virt. eigenvalues --    0.17823   0.18107   0.18272   0.18354   0.18603
 Alpha virt. eigenvalues --    0.18833   0.19090   0.19338   0.19541   0.19890
 Alpha virt. eigenvalues --    0.20139   0.20392   0.20745   0.20783   0.21178
 Alpha virt. eigenvalues --    0.21417   0.21528   0.21660   0.21777   0.22244
 Alpha virt. eigenvalues --    0.22411   0.22714   0.22769   0.22866   0.23189
 Alpha virt. eigenvalues --    0.23230   0.23381   0.23473   0.23641   0.23902
 Alpha virt. eigenvalues --    0.24290   0.24522   0.24571   0.24696   0.24923
 Alpha virt. eigenvalues --    0.25077   0.25406   0.25623   0.25689   0.25865
 Alpha virt. eigenvalues --    0.26009   0.26274   0.26607   0.26636   0.27043
 Alpha virt. eigenvalues --    0.27209   0.27406   0.27530   0.27923   0.27991
 Alpha virt. eigenvalues --    0.28139   0.28178   0.28351   0.28381   0.28556
 Alpha virt. eigenvalues --    0.29105   0.29316   0.29431   0.29542   0.29800
 Alpha virt. eigenvalues --    0.30065   0.30329   0.30381   0.30518   0.30674
 Alpha virt. eigenvalues --    0.30887   0.30955   0.31326   0.31688   0.31726
 Alpha virt. eigenvalues --    0.31969   0.32148   0.32428   0.32655   0.32811
 Alpha virt. eigenvalues --    0.32983   0.33082   0.33360   0.33519   0.33742
 Alpha virt. eigenvalues --    0.34049   0.34181   0.34505   0.34580   0.34739
 Alpha virt. eigenvalues --    0.35040   0.35069   0.35362   0.35434   0.35635
 Alpha virt. eigenvalues --    0.35751   0.35843   0.35936   0.36234   0.36354
 Alpha virt. eigenvalues --    0.36473   0.36701   0.36758   0.37035   0.37111
 Alpha virt. eigenvalues --    0.37257   0.37581   0.37730   0.37793   0.38121
 Alpha virt. eigenvalues --    0.38217   0.38332   0.38568   0.38854   0.39074
 Alpha virt. eigenvalues --    0.39164   0.39418   0.39455   0.39578   0.39751
 Alpha virt. eigenvalues --    0.39783   0.39938   0.40116   0.40397   0.40495
 Alpha virt. eigenvalues --    0.40924   0.41001   0.41111   0.41297   0.41654
 Alpha virt. eigenvalues --    0.41797   0.42021   0.42088   0.42450   0.42653
 Alpha virt. eigenvalues --    0.42787   0.42794   0.42970   0.43144   0.43242
 Alpha virt. eigenvalues --    0.43392   0.43487   0.43693   0.43928   0.44072
 Alpha virt. eigenvalues --    0.44250   0.44270   0.44401   0.44533   0.44643
 Alpha virt. eigenvalues --    0.44739   0.44932   0.45234   0.45329   0.45494
 Alpha virt. eigenvalues --    0.45552   0.45665   0.46032   0.46122   0.46264
 Alpha virt. eigenvalues --    0.46378   0.46694   0.46799   0.47130   0.47180
 Alpha virt. eigenvalues --    0.47278   0.47731   0.47858   0.47912   0.48225
 Alpha virt. eigenvalues --    0.48506   0.48573   0.48728   0.48891   0.49077
 Alpha virt. eigenvalues --    0.49613   0.49733   0.49904   0.50156   0.50461
 Alpha virt. eigenvalues --    0.50525   0.50804   0.50910   0.51175   0.51636
 Alpha virt. eigenvalues --    0.51739   0.51848   0.51941   0.52437   0.52693
 Alpha virt. eigenvalues --    0.52825   0.53397   0.53891   0.53967   0.54256
 Alpha virt. eigenvalues --    0.54531   0.54724   0.55467   0.55803   0.55884
 Alpha virt. eigenvalues --    0.56151   0.56592   0.56733   0.56947   0.57136
 Alpha virt. eigenvalues --    0.57521   0.57881   0.58197   0.58391   0.58675
 Alpha virt. eigenvalues --    0.58723   0.59236   0.59662   0.59789   0.60170
 Alpha virt. eigenvalues --    0.60298   0.60427   0.60950   0.60987   0.61100
 Alpha virt. eigenvalues --    0.61394   0.61575   0.61825   0.62033   0.62590
 Alpha virt. eigenvalues --    0.63062   0.63417   0.63559   0.63643   0.63853
 Alpha virt. eigenvalues --    0.63965   0.64357   0.64733   0.64825   0.65031
 Alpha virt. eigenvalues --    0.65675   0.65794   0.65879   0.66026   0.66242
 Alpha virt. eigenvalues --    0.66533   0.66791   0.67035   0.67277   0.67609
 Alpha virt. eigenvalues --    0.67900   0.68402   0.68492   0.68678   0.69021
 Alpha virt. eigenvalues --    0.69270   0.69374   0.69832   0.69893   0.70251
 Alpha virt. eigenvalues --    0.70615   0.70739   0.71065   0.71309   0.71520
 Alpha virt. eigenvalues --    0.71717   0.71968   0.72227   0.72481   0.72612
 Alpha virt. eigenvalues --    0.73082   0.73210   0.73346   0.73888   0.74261
 Alpha virt. eigenvalues --    0.74509   0.74817   0.74891   0.74972   0.75269
 Alpha virt. eigenvalues --    0.75557   0.75862   0.76033   0.76475   0.76824
 Alpha virt. eigenvalues --    0.77083   0.77335   0.77616   0.78080   0.78383
 Alpha virt. eigenvalues --    0.78685   0.78903   0.79170   0.79360   0.79433
 Alpha virt. eigenvalues --    0.80067   0.80556   0.80577   0.80737   0.81293
 Alpha virt. eigenvalues --    0.81496   0.81764   0.81982   0.82302   0.82488
 Alpha virt. eigenvalues --    0.82737   0.82920   0.83507   0.83592   0.83956
 Alpha virt. eigenvalues --    0.84149   0.84721   0.84911   0.84983   0.85240
 Alpha virt. eigenvalues --    0.85942   0.86029   0.86282   0.86542   0.86835
 Alpha virt. eigenvalues --    0.87026   0.87229   0.87444   0.87823   0.88148
 Alpha virt. eigenvalues --    0.88254   0.88584   0.88744   0.89068   0.89492
 Alpha virt. eigenvalues --    0.89592   0.89972   0.90241   0.90563   0.90745
 Alpha virt. eigenvalues --    0.90927   0.91422   0.91579   0.92066   0.92554
 Alpha virt. eigenvalues --    0.92735   0.93127   0.93455   0.93640   0.93927
 Alpha virt. eigenvalues --    0.94218   0.95120   0.95309   0.95785   0.95961
 Alpha virt. eigenvalues --    0.96213   0.96553   0.97043   0.97522   0.97652
 Alpha virt. eigenvalues --    0.97861   0.98802   0.98877   0.99470   1.00076
 Alpha virt. eigenvalues --    1.00351   1.00591   1.00821   1.01755   1.01905
 Alpha virt. eigenvalues --    1.02089   1.02261   1.02631   1.02772   1.03284
 Alpha virt. eigenvalues --    1.03349   1.03990   1.04390   1.04656   1.04995
 Alpha virt. eigenvalues --    1.05440   1.05566   1.06024   1.06082   1.06591
 Alpha virt. eigenvalues --    1.06753   1.07035   1.07272   1.07792   1.07949
 Alpha virt. eigenvalues --    1.08087   1.08186   1.08554   1.08990   1.09681
 Alpha virt. eigenvalues --    1.10081   1.10554   1.10652   1.10770   1.11006
 Alpha virt. eigenvalues --    1.11377   1.11774   1.12306   1.12527   1.12852
 Alpha virt. eigenvalues --    1.13122   1.13413   1.13529   1.13744   1.14460
 Alpha virt. eigenvalues --    1.14894   1.15154   1.15371   1.16030   1.16390
 Alpha virt. eigenvalues --    1.16697   1.17001   1.17112   1.17548   1.17760
 Alpha virt. eigenvalues --    1.18031   1.18306   1.18425   1.18924   1.19222
 Alpha virt. eigenvalues --    1.19604   1.19697   1.20381   1.20445   1.20516
 Alpha virt. eigenvalues --    1.20920   1.21293   1.21501   1.22120   1.22251
 Alpha virt. eigenvalues --    1.22370   1.23087   1.23293   1.23782   1.24172
 Alpha virt. eigenvalues --    1.24511   1.24674   1.24883   1.25162   1.25894
 Alpha virt. eigenvalues --    1.25979   1.26271   1.26495   1.26915   1.27043
 Alpha virt. eigenvalues --    1.27371   1.27485   1.27941   1.28076   1.28711
 Alpha virt. eigenvalues --    1.28908   1.29246   1.30042   1.30177   1.30512
 Alpha virt. eigenvalues --    1.30902   1.31196   1.31652   1.32095   1.32355
 Alpha virt. eigenvalues --    1.32510   1.33092   1.33336   1.33812   1.33961
 Alpha virt. eigenvalues --    1.34568   1.34825   1.35178   1.35578   1.35776
 Alpha virt. eigenvalues --    1.36546   1.37099   1.37425   1.37799   1.38032
 Alpha virt. eigenvalues --    1.38371   1.38860   1.39216   1.39862   1.39970
 Alpha virt. eigenvalues --    1.40254   1.40495   1.41059   1.41694   1.42181
 Alpha virt. eigenvalues --    1.42767   1.43425   1.43541   1.43808   1.44386
 Alpha virt. eigenvalues --    1.44782   1.45078   1.45274   1.45981   1.46126
 Alpha virt. eigenvalues --    1.46539   1.46927   1.47190   1.47463   1.47768
 Alpha virt. eigenvalues --    1.48001   1.48407   1.48710   1.48996   1.49289
 Alpha virt. eigenvalues --    1.49631   1.49917   1.50139   1.50975   1.51076
 Alpha virt. eigenvalues --    1.51702   1.51966   1.52326   1.52541   1.52908
 Alpha virt. eigenvalues --    1.53274   1.53554   1.53622   1.53723   1.53981
 Alpha virt. eigenvalues --    1.54529   1.54923   1.55036   1.55224   1.55616
 Alpha virt. eigenvalues --    1.55861   1.56148   1.56496   1.56771   1.57013
 Alpha virt. eigenvalues --    1.57041   1.57567   1.57900   1.58368   1.58535
 Alpha virt. eigenvalues --    1.58886   1.59065   1.59253   1.59634   1.59866
 Alpha virt. eigenvalues --    1.59968   1.60181   1.60546   1.60615   1.60912
 Alpha virt. eigenvalues --    1.61292   1.61400   1.61647   1.61982   1.62072
 Alpha virt. eigenvalues --    1.62202   1.62357   1.62738   1.63066   1.63619
 Alpha virt. eigenvalues --    1.63739   1.63819   1.64283   1.64798   1.65037
 Alpha virt. eigenvalues --    1.65170   1.65466   1.65693   1.66156   1.66614
 Alpha virt. eigenvalues --    1.66709   1.66954   1.67461   1.67825   1.67948
 Alpha virt. eigenvalues --    1.68349   1.68790   1.68862   1.69416   1.69512
 Alpha virt. eigenvalues --    1.69798   1.70314   1.70375   1.70497   1.70775
 Alpha virt. eigenvalues --    1.71153   1.71478   1.71930   1.72198   1.72407
 Alpha virt. eigenvalues --    1.72927   1.73103   1.73622   1.74109   1.74388
 Alpha virt. eigenvalues --    1.74671   1.75204   1.75307   1.75651   1.76470
 Alpha virt. eigenvalues --    1.76871   1.77286   1.77612   1.78350   1.78614
 Alpha virt. eigenvalues --    1.79096   1.79186   1.79775   1.79981   1.80489
 Alpha virt. eigenvalues --    1.81537   1.81894   1.82190   1.82941   1.83115
 Alpha virt. eigenvalues --    1.83332   1.84334   1.84527   1.84763   1.85095
 Alpha virt. eigenvalues --    1.85470   1.85862   1.86184   1.87033   1.87142
 Alpha virt. eigenvalues --    1.87827   1.88007   1.88318   1.88730   1.88903
 Alpha virt. eigenvalues --    1.89170   1.89438   1.89922   1.90004   1.90317
 Alpha virt. eigenvalues --    1.90581   1.90772   1.91129   1.91397   1.91930
 Alpha virt. eigenvalues --    1.92252   1.92775   1.93109   1.93352   1.93801
 Alpha virt. eigenvalues --    1.93995   1.94192   1.94377   1.94702   1.95104
 Alpha virt. eigenvalues --    1.95624   1.95946   1.96307   1.96809   1.97261
 Alpha virt. eigenvalues --    1.97535   1.97884   1.97968   1.98631   1.98774
 Alpha virt. eigenvalues --    1.99012   1.99717   2.00267   2.00490   2.00716
 Alpha virt. eigenvalues --    2.01406   2.01896   2.02377   2.02613   2.02815
 Alpha virt. eigenvalues --    2.03197   2.03462   2.03859   2.04525   2.04686
 Alpha virt. eigenvalues --    2.04879   2.05064   2.05418   2.05883   2.06599
 Alpha virt. eigenvalues --    2.06791   2.07124   2.07366   2.07843   2.08342
 Alpha virt. eigenvalues --    2.08476   2.09092   2.09179   2.09473   2.10006
 Alpha virt. eigenvalues --    2.10346   2.10647   2.11042   2.11423   2.11629
 Alpha virt. eigenvalues --    2.11924   2.12681   2.12789   2.12909   2.13452
 Alpha virt. eigenvalues --    2.14163   2.14626   2.14713   2.14888   2.15241
 Alpha virt. eigenvalues --    2.15396   2.16392   2.16518   2.16642   2.16926
 Alpha virt. eigenvalues --    2.17469   2.17692   2.18183   2.19174   2.19319
 Alpha virt. eigenvalues --    2.19959   2.20230   2.20338   2.20453   2.20650
 Alpha virt. eigenvalues --    2.21159   2.21405   2.21800   2.21992   2.22141
 Alpha virt. eigenvalues --    2.22805   2.22891   2.23144   2.23702   2.23926
 Alpha virt. eigenvalues --    2.24075   2.24500   2.24738   2.25006   2.25281
 Alpha virt. eigenvalues --    2.25743   2.26054   2.26477   2.27007   2.27611
 Alpha virt. eigenvalues --    2.27838   2.28023   2.28511   2.28931   2.29482
 Alpha virt. eigenvalues --    2.29693   2.30337   2.30488   2.31025   2.31615
 Alpha virt. eigenvalues --    2.31973   2.32372   2.32606   2.32630   2.32871
 Alpha virt. eigenvalues --    2.33350   2.33402   2.33676   2.33898   2.34238
 Alpha virt. eigenvalues --    2.34809   2.35211   2.35925   2.36299   2.36409
 Alpha virt. eigenvalues --    2.36800   2.36968   2.37520   2.37803   2.38626
 Alpha virt. eigenvalues --    2.38840   2.39578   2.39785   2.40289   2.40406
 Alpha virt. eigenvalues --    2.40783   2.41061   2.41493   2.41801   2.42121
 Alpha virt. eigenvalues --    2.42182   2.42854   2.43251   2.43979   2.44323
 Alpha virt. eigenvalues --    2.44544   2.45006   2.45196   2.45713   2.45780
 Alpha virt. eigenvalues --    2.46332   2.46713   2.46915   2.47306   2.48238
 Alpha virt. eigenvalues --    2.48688   2.48789   2.49576   2.49744   2.49893
 Alpha virt. eigenvalues --    2.50174   2.50762   2.51557   2.51873   2.52247
 Alpha virt. eigenvalues --    2.52676   2.53373   2.53596   2.53733   2.53882
 Alpha virt. eigenvalues --    2.54321   2.54600   2.55154   2.55701   2.55836
 Alpha virt. eigenvalues --    2.56036   2.56282   2.56645   2.57022   2.57351
 Alpha virt. eigenvalues --    2.57727   2.57844   2.58113   2.58497   2.58690
 Alpha virt. eigenvalues --    2.58851   2.59157   2.59514   2.59775   2.60008
 Alpha virt. eigenvalues --    2.60408   2.60693   2.60757   2.61122   2.61714
 Alpha virt. eigenvalues --    2.61786   2.62127   2.62291   2.62455   2.62534
 Alpha virt. eigenvalues --    2.63042   2.63353   2.63682   2.63892   2.64401
 Alpha virt. eigenvalues --    2.64584   2.64745   2.64955   2.65445   2.65547
 Alpha virt. eigenvalues --    2.65718   2.65991   2.66331   2.66343   2.66940
 Alpha virt. eigenvalues --    2.67320   2.67502   2.67771   2.67940   2.68172
 Alpha virt. eigenvalues --    2.68644   2.69032   2.69147   2.69679   2.70000
 Alpha virt. eigenvalues --    2.70520   2.70784   2.70948   2.71145   2.71242
 Alpha virt. eigenvalues --    2.71771   2.71908   2.72282   2.72689   2.72901
 Alpha virt. eigenvalues --    2.73273   2.73604   2.73907   2.74260   2.74392
 Alpha virt. eigenvalues --    2.75174   2.75433   2.75649   2.75951   2.76176
 Alpha virt. eigenvalues --    2.76401   2.76900   2.77064   2.77329   2.77595
 Alpha virt. eigenvalues --    2.77850   2.78611   2.79083   2.79217   2.79505
 Alpha virt. eigenvalues --    2.79749   2.80307   2.80382   2.80798   2.80885
 Alpha virt. eigenvalues --    2.81161   2.81793   2.82103   2.82470   2.82688
 Alpha virt. eigenvalues --    2.82881   2.83208   2.83552   2.83759   2.83988
 Alpha virt. eigenvalues --    2.84296   2.84707   2.84915   2.85210   2.85567
 Alpha virt. eigenvalues --    2.85790   2.86239   2.86424   2.86736   2.86954
 Alpha virt. eigenvalues --    2.87307   2.87444   2.87774   2.88073   2.88532
 Alpha virt. eigenvalues --    2.88677   2.88979   2.89223   2.89285   2.89614
 Alpha virt. eigenvalues --    2.89961   2.90648   2.90907   2.91161   2.91550
 Alpha virt. eigenvalues --    2.91754   2.91973   2.92266   2.92554   2.92903
 Alpha virt. eigenvalues --    2.93258   2.93468   2.93872   2.94110   2.94499
 Alpha virt. eigenvalues --    2.94618   2.94997   2.95114   2.95552   2.95830
 Alpha virt. eigenvalues --    2.96483   2.96762   2.97003   2.97480   2.98225
 Alpha virt. eigenvalues --    2.98549   2.99075   2.99452   2.99650   3.00157
 Alpha virt. eigenvalues --    3.00528   3.00741   3.01360   3.01765   3.02416
 Alpha virt. eigenvalues --    3.02735   3.02954   3.03596   3.03623   3.03952
 Alpha virt. eigenvalues --    3.04320   3.04558   3.04853   3.05418   3.05659
 Alpha virt. eigenvalues --    3.06339   3.06760   3.06936   3.07293   3.07705
 Alpha virt. eigenvalues --    3.08266   3.08503   3.09006   3.09574   3.09851
 Alpha virt. eigenvalues --    3.10061   3.10573   3.10956   3.11102   3.11261
 Alpha virt. eigenvalues --    3.11453   3.12249   3.12376   3.12534   3.12782
 Alpha virt. eigenvalues --    3.12965   3.13326   3.14108   3.14246   3.14597
 Alpha virt. eigenvalues --    3.14855   3.15028   3.15524   3.15888   3.16025
 Alpha virt. eigenvalues --    3.16516   3.16823   3.17133   3.17354   3.17708
 Alpha virt. eigenvalues --    3.18109   3.18128   3.18558   3.18891   3.19059
 Alpha virt. eigenvalues --    3.19438   3.19875   3.20146   3.20249   3.20772
 Alpha virt. eigenvalues --    3.21274   3.21536   3.21732   3.22052   3.22273
 Alpha virt. eigenvalues --    3.22460   3.22617   3.23057   3.23175   3.23583
 Alpha virt. eigenvalues --    3.24002   3.24182   3.24635   3.24794   3.25186
 Alpha virt. eigenvalues --    3.25417   3.25504   3.25822   3.26056   3.26514
 Alpha virt. eigenvalues --    3.26827   3.27136   3.27286   3.27824   3.28331
 Alpha virt. eigenvalues --    3.28735   3.28808   3.28924   3.29223   3.29516
 Alpha virt. eigenvalues --    3.29934   3.30249   3.30465   3.30472   3.30687
 Alpha virt. eigenvalues --    3.31197   3.31675   3.31775   3.31950   3.32257
 Alpha virt. eigenvalues --    3.32792   3.33026   3.33353   3.33601   3.33781
 Alpha virt. eigenvalues --    3.34006   3.34221   3.34384   3.34887   3.34951
 Alpha virt. eigenvalues --    3.35220   3.35427   3.35535   3.35706   3.36002
 Alpha virt. eigenvalues --    3.36410   3.36705   3.36824   3.37360   3.37522
 Alpha virt. eigenvalues --    3.37662   3.38044   3.38354   3.38508   3.38771
 Alpha virt. eigenvalues --    3.38956   3.39300   3.39466   3.39631   3.40029
 Alpha virt. eigenvalues --    3.40148   3.40443   3.40819   3.41073   3.41355
 Alpha virt. eigenvalues --    3.41842   3.41904   3.42088   3.42262   3.42396
 Alpha virt. eigenvalues --    3.42616   3.42983   3.43249   3.43386   3.43724
 Alpha virt. eigenvalues --    3.43838   3.44254   3.44382   3.44678   3.44897
 Alpha virt. eigenvalues --    3.45097   3.45707   3.45887   3.46163   3.46543
 Alpha virt. eigenvalues --    3.46790   3.47012   3.47243   3.47708   3.47936
 Alpha virt. eigenvalues --    3.48261   3.48666   3.49138   3.49438   3.49584
 Alpha virt. eigenvalues --    3.50216   3.50324   3.50615   3.50854   3.51272
 Alpha virt. eigenvalues --    3.51301   3.51927   3.52040   3.52293   3.52355
 Alpha virt. eigenvalues --    3.52705   3.53062   3.53279   3.53318   3.53774
 Alpha virt. eigenvalues --    3.54111   3.54661   3.55060   3.55333   3.55493
 Alpha virt. eigenvalues --    3.55656   3.56191   3.56421   3.56918   3.57272
 Alpha virt. eigenvalues --    3.57554   3.57667   3.57962   3.58011   3.58307
 Alpha virt. eigenvalues --    3.58749   3.59251   3.59438   3.59839   3.60459
 Alpha virt. eigenvalues --    3.60917   3.61135   3.61328   3.61620   3.61805
 Alpha virt. eigenvalues --    3.62324   3.62986   3.63325   3.63740   3.63964
 Alpha virt. eigenvalues --    3.64438   3.65084   3.65814   3.66002   3.66157
 Alpha virt. eigenvalues --    3.66853   3.67179   3.67593   3.68203   3.68449
 Alpha virt. eigenvalues --    3.68856   3.68932   3.69407   3.70035   3.70193
 Alpha virt. eigenvalues --    3.70690   3.71092   3.71480   3.71691   3.71876
 Alpha virt. eigenvalues --    3.72232   3.72880   3.73142   3.73650   3.74357
 Alpha virt. eigenvalues --    3.74899   3.75646   3.76029   3.76323   3.76807
 Alpha virt. eigenvalues --    3.77512   3.77724   3.77925   3.78463   3.79159
 Alpha virt. eigenvalues --    3.80036   3.80381   3.80693   3.81374   3.81739
 Alpha virt. eigenvalues --    3.82061   3.82542   3.82681   3.82981   3.83145
 Alpha virt. eigenvalues --    3.83920   3.84402   3.84753   3.85061   3.85830
 Alpha virt. eigenvalues --    3.86238   3.86468   3.86770   3.87246   3.87692
 Alpha virt. eigenvalues --    3.87973   3.88211   3.88783   3.89624   3.89874
 Alpha virt. eigenvalues --    3.90405   3.92529   3.93205   3.93352   3.94159
 Alpha virt. eigenvalues --    3.94387   3.94923   3.95457   3.95936   3.96859
 Alpha virt. eigenvalues --    3.97611   3.97981   3.98147   3.98873   3.99213
 Alpha virt. eigenvalues --    3.99896   4.01143   4.01508   4.02305   4.02662
 Alpha virt. eigenvalues --    4.02871   4.03347   4.04152   4.04397   4.04889
 Alpha virt. eigenvalues --    4.05049   4.05640   4.06080   4.06446   4.06764
 Alpha virt. eigenvalues --    4.07480   4.07597   4.08447   4.09098   4.09456
 Alpha virt. eigenvalues --    4.10999   4.11456   4.11890   4.12834   4.13055
 Alpha virt. eigenvalues --    4.13295   4.13505   4.14000   4.14663   4.14814
 Alpha virt. eigenvalues --    4.15063   4.15385   4.15643   4.15787   4.16343
 Alpha virt. eigenvalues --    4.16379   4.16609   4.17606   4.17739   4.18493
 Alpha virt. eigenvalues --    4.18928   4.19589   4.19641   4.20032   4.20312
 Alpha virt. eigenvalues --    4.20980   4.21228   4.21387   4.21833   4.22207
 Alpha virt. eigenvalues --    4.22970   4.23067   4.23396   4.24030   4.24411
 Alpha virt. eigenvalues --    4.24659   4.24807   4.25548   4.25862   4.25990
 Alpha virt. eigenvalues --    4.26536   4.27033   4.27589   4.28076   4.28161
 Alpha virt. eigenvalues --    4.28438   4.28898   4.29613   4.30052   4.30693
 Alpha virt. eigenvalues --    4.31362   4.31894   4.32207   4.32449   4.33025
 Alpha virt. eigenvalues --    4.33398   4.34361   4.34495   4.34611   4.35320
 Alpha virt. eigenvalues --    4.35628   4.35923   4.36321   4.36698   4.36921
 Alpha virt. eigenvalues --    4.37593   4.37848   4.39501   4.40098   4.40937
 Alpha virt. eigenvalues --    4.41474   4.41918   4.42415   4.42994   4.43311
 Alpha virt. eigenvalues --    4.43801   4.44584   4.44968   4.45435   4.45674
 Alpha virt. eigenvalues --    4.46024   4.46474   4.47103   4.47215   4.47619
 Alpha virt. eigenvalues --    4.49104   4.49637   4.50088   4.50668   4.51164
 Alpha virt. eigenvalues --    4.52135   4.52812   4.53182   4.53886   4.54962
 Alpha virt. eigenvalues --    4.55041   4.56241   4.56491   4.56977   4.57464
 Alpha virt. eigenvalues --    4.58695   4.60104   4.60492   4.61130   4.62198
 Alpha virt. eigenvalues --    4.62963   4.64396   4.65339   4.67157   4.67783
 Alpha virt. eigenvalues --    4.69471   4.69948   4.70709   4.73550   4.73845
 Alpha virt. eigenvalues --    4.74318   4.74935   4.75333   4.75458   4.76162
 Alpha virt. eigenvalues --    4.76629   4.77174   4.77651   4.78940   4.79621
 Alpha virt. eigenvalues --    4.80264   4.81060   4.82128   4.82816   4.84333
 Alpha virt. eigenvalues --    4.85048   4.85661   4.86943   4.86990   4.88472
 Alpha virt. eigenvalues --    4.89352   4.90383   4.90620   4.93648   4.94310
 Alpha virt. eigenvalues --    4.96438   4.96755   4.97688   4.99055   4.99161
 Alpha virt. eigenvalues --    4.99890   5.01211   5.02784   5.03961   5.04914
 Alpha virt. eigenvalues --    5.05725   5.06071   5.07086   5.07861   5.08848
 Alpha virt. eigenvalues --    5.09986   5.10068   5.10278   5.11634   5.12841
 Alpha virt. eigenvalues --    5.13918   5.14734   5.15128   5.16085   5.16372
 Alpha virt. eigenvalues --    5.16769   5.17746   5.19538   5.20146   5.20709
 Alpha virt. eigenvalues --    5.21804   5.22443   5.23228   5.24121   5.25932
[...]
              Bcc     0.0065     0.867     0.310     0.289  0.8076 -0.5080  0.2995
 
              Baa    -0.0023    -1.213    -0.433    -0.405  0.6823  0.6003 -0.4173
    35 H(1)   Bbb    -0.0019    -0.995    -0.355    -0.332  0.2843  0.3080  0.9079
              Bcc     0.0041     2.208     0.788     0.736 -0.6735  0.7381 -0.0395
 
              Baa    -0.0021    -1.122    -0.400    -0.374  0.4013  0.9153  0.0361
    36 H(1)   Bbb    -0.0016    -0.860    -0.307    -0.287  0.0357 -0.0550  0.9978
              Bcc     0.0037     1.982     0.707     0.661  0.9153 -0.3991 -0.0548
 
              Baa    -0.0071    -0.954    -0.340    -0.318 -0.0162 -0.5985  0.8010
    37 C(13)  Bbb    -0.0057    -0.765    -0.273    -0.255  0.6512  0.6016  0.4627
              Bcc     0.0128     1.719     0.613     0.573  0.7588 -0.5291 -0.3800
 
              Baa    -0.0051    -2.698    -0.963    -0.900 -0.3020 -0.6694  0.6787
    38 H(1)   Bbb    -0.0036    -1.932    -0.690    -0.645  0.7620  0.2583  0.5939
              Bcc     0.0087     4.630     1.652     1.544 -0.5729  0.6965  0.4320
 
              Baa    -0.0087    -1.173    -0.419    -0.391 -0.0198  0.9965 -0.0817
    39 C(13)  Bbb    -0.0070    -0.936    -0.334    -0.312 -0.0667  0.0802  0.9945
              Bcc     0.0157     2.109     0.753     0.703  0.9976  0.0251  0.0649
 
              Baa    -0.0059    -3.132    -1.118    -1.045  0.1962  0.9739 -0.1144
    40 H(1)   Bbb    -0.0045    -2.393    -0.854    -0.798 -0.2831  0.1680  0.9443
              Bcc     0.0104     5.525     1.971     1.843  0.9388 -0.1529  0.3087
 
              Baa    -0.0239     1.729     0.617     0.577 -0.1551  0.7127  0.6841
    41 O(17)  Bbb    -0.0018     0.133     0.048     0.044  0.7233 -0.3898  0.5700
              Bcc     0.0257    -1.862    -0.664    -0.621  0.6729  0.5832 -0.4550
 
              Baa    -0.0491     3.553     1.268     1.185  0.8552 -0.0568  0.5151
    42 O(17)  Bbb    -0.0369     2.669     0.953     0.890 -0.4638  0.3596  0.8097
              Bcc     0.0860    -6.222    -2.220    -2.075  0.2312  0.9314 -0.2812
 
              Baa    -0.4474    21.366     7.624     7.127  0.3032  0.8370 -0.4555
    43 Ni(61) Bbb    -0.3275    15.642     5.582     5.218  0.1414  0.4332  0.8901
              Bcc     0.7749   -37.009   -13.206   -12.345  0.9424 -0.3343  0.0130
 
              Baa    -0.0961    -5.032    -1.796    -1.679  0.0595  0.0790  0.9951
    44 Cl(35) Bbb    -0.0529    -2.769    -0.988    -0.924  0.9353 -0.3529 -0.0279
              Bcc     0.1491     7.801     2.784     2.602  0.3489  0.9323 -0.0948
 
              Baa    -0.0045    -0.604    -0.216    -0.202  0.4674  0.6962  0.5448
    45 C(13)  Bbb    -0.0029    -0.395    -0.141    -0.132 -0.4590  0.7178 -0.5235
              Bcc     0.0074     0.999     0.356     0.333  0.7556  0.0054 -0.6550
 
              Baa    -0.0021    -0.284    -0.101    -0.095  0.3625 -0.0636  0.9298
    46 C(13)  Bbb    -0.0017    -0.233    -0.083    -0.078  0.0041  0.9978  0.0667
              Bcc     0.0039     0.517     0.185     0.172  0.9320  0.0204 -0.3619
 
              Baa    -0.0027    -1.424    -0.508    -0.475  0.2729  0.0771  0.9590
    47 H(1)   Bbb    -0.0025    -1.339    -0.478    -0.447 -0.2560  0.9667 -0.0049
              Bcc     0.0052     2.763     0.986     0.922  0.9274  0.2441 -0.2835
 
              Baa    -0.0016    -0.861    -0.307    -0.287  0.0086  0.9883 -0.1525
    48 H(1)   Bbb    -0.0015    -0.781    -0.279    -0.260  0.2031  0.1476  0.9680
              Bcc     0.0031     1.641     0.586     0.548  0.9791 -0.0393 -0.1994
 
              Baa    -0.0013    -0.675    -0.241    -0.225  0.3479  0.4460  0.8247
    49 H(1)   Bbb    -0.0012    -0.661    -0.236    -0.220 -0.2639  0.8906 -0.3703
              Bcc     0.0025     1.336     0.477     0.446  0.8996  0.0888 -0.4276
 
              Baa    -0.0015    -0.203    -0.073    -0.068  0.0206  0.8222 -0.5688
    50 C(13)  Bbb    -0.0012    -0.164    -0.058    -0.055  0.6765  0.4075  0.6135
              Bcc     0.0027     0.367     0.131     0.122  0.7362 -0.3975 -0.5478
 
              Baa    -0.0013    -0.720    -0.257    -0.240  0.2042  0.8534 -0.4797
    51 H(1)   Bbb    -0.0012    -0.649    -0.232    -0.216  0.7054  0.2115  0.6766
              Bcc     0.0026     1.369     0.489     0.457  0.6788 -0.4765 -0.5587
 
              Baa    -0.0010    -0.514    -0.183    -0.171  0.3153  0.9488  0.0164
    52 H(1)   Bbb    -0.0009    -0.498    -0.178    -0.166  0.5276 -0.1897  0.8280
              Bcc     0.0019     1.012     0.361     0.337  0.7888 -0.2524 -0.5604
 
              Baa    -0.0012    -0.627    -0.224    -0.209  0.4303  0.9018 -0.0402
    53 H(1)   Bbb    -0.0011    -0.565    -0.202    -0.189  0.3390 -0.1202  0.9331
              Bcc     0.0022     1.192     0.425     0.398  0.8366 -0.4152 -0.3574
 
              Baa    -0.0032    -0.426    -0.152    -0.142  0.3414  0.9105  0.2333
    54 C(13)  Bbb    -0.0023    -0.308    -0.110    -0.103  0.6434 -0.4073  0.6481
              Bcc     0.0055     0.734     0.262     0.245 -0.6852  0.0712  0.7249
 
              Baa    -0.0049    -2.618    -0.934    -0.873  0.2553  0.8761  0.4090
    55 H(1)   Bbb    -0.0031    -1.644    -0.587    -0.548  0.7020 -0.4589  0.5446
              Bcc     0.0080     4.261     1.521     1.421 -0.6648 -0.1481  0.7322
 
              Baa    -0.0018    -0.934    -0.333    -0.311  0.3291  0.8956  0.2994
    56 H(1)   Bbb    -0.0014    -0.743    -0.265    -0.248  0.6490 -0.4448  0.6171
              Bcc     0.0031     1.676     0.598     0.559 -0.6859  0.0087  0.7277
 
              Baa    -0.0030    -1.592    -0.568    -0.531  0.4360  0.8999 -0.0041
    57 H(1)   Bbb    -0.0022    -1.185    -0.423    -0.395  0.7248 -0.3484  0.5944
              Bcc     0.0052     2.777     0.991     0.926 -0.5335  0.2621  0.8042
 
              Baa    -0.0064    -0.861    -0.307    -0.287  0.1139 -0.2558  0.9600
    58 C(13)  Bbb    -0.0040    -0.535    -0.191    -0.179 -0.6268  0.7312  0.2692
              Bcc     0.0104     1.396     0.498     0.466  0.7708  0.6323  0.0771
 
              Baa    -0.0031    -0.416    -0.149    -0.139 -0.5552  0.7929 -0.2511
    59 C(13)  Bbb    -0.0027    -0.365    -0.130    -0.122  0.0442  0.3296  0.9431
              Bcc     0.0058     0.781     0.279     0.260  0.8305  0.5125 -0.2180
 
              Baa    -0.0041    -2.214    -0.790    -0.738  0.7009 -0.5130  0.4955
    60 H(1)   Bbb    -0.0038    -2.052    -0.732    -0.684 -0.1228  0.5975  0.7924
              Bcc     0.0080     4.266     1.522     1.423  0.7026  0.6162 -0.3558
 
              Baa    -0.0024    -1.277    -0.456    -0.426 -0.4778  0.8231 -0.3071
    61 H(1)   Bbb    -0.0022    -1.154    -0.412    -0.385  0.1746  0.4316  0.8850
              Bcc     0.0046     2.430     0.867     0.811  0.8610  0.3692 -0.3499
 
              Baa    -0.0019    -0.988    -0.353    -0.330  0.4370 -0.2970  0.8490
    62 H(1)   Bbb    -0.0018    -0.963    -0.343    -0.321 -0.4425  0.7508  0.4904
              Bcc     0.0037     1.951     0.696     0.651  0.7831  0.5900 -0.1967
 
              Baa    -0.0044    -0.596    -0.213    -0.199 -0.3035  0.7576 -0.5779
    63 C(13)  Bbb    -0.0036    -0.485    -0.173    -0.162 -0.4985  0.3906  0.7739
              Bcc     0.0081     1.081     0.386     0.361  0.8120  0.5229  0.2591
 
              Baa    -0.0039    -2.082    -0.743    -0.694 -0.0821  0.8331 -0.5469
    64 H(1)   Bbb    -0.0029    -1.541    -0.550    -0.514 -0.5714  0.4103  0.7107
              Bcc     0.0068     3.623     1.293     1.208  0.8165  0.3709  0.4424
 
              Baa    -0.0080    -4.245    -1.515    -1.416  0.3152 -0.5532  0.7711
    65 H(1)   Bbb    -0.0053    -2.832    -1.011    -0.945  0.6219 -0.4933 -0.6082
              Bcc     0.0133     7.077     2.525     2.361  0.7169  0.6712  0.1885
 
              Baa    -0.0025    -1.329    -0.474    -0.443  0.2681 -0.5879  0.7632
    66 H(1)   Bbb    -0.0021    -1.094    -0.390    -0.365 -0.5916  0.5247  0.6121
              Bcc     0.0045     2.423     0.865     0.808  0.7603  0.6157  0.2071
 
              Baa    -0.0022    -0.292    -0.104    -0.097 -0.1949  0.9776 -0.0790
    67 C(13)  Bbb    -0.0019    -0.254    -0.091    -0.085 -0.2090  0.0374  0.9772
              Bcc     0.0041     0.546     0.195     0.182  0.9583  0.2069  0.1971
 
              Baa    -0.0016    -0.873    -0.312    -0.291 -0.1563  0.9864  0.0504
    68 H(1)   Bbb    -0.0015    -0.792    -0.283    -0.264 -0.2443 -0.0881  0.9657
              Bcc     0.0031     1.666     0.594     0.556  0.9570  0.1386  0.2548
 
              Baa    -0.0013    -0.686    -0.245    -0.229  0.0017 -0.2708  0.9626
    69 H(1)   Bbb    -0.0012    -0.646    -0.230    -0.215 -0.3879  0.8871  0.2503
              Bcc     0.0025     1.331     0.475     0.444  0.9217  0.3738  0.1035
 
              Baa    -0.0015    -0.819    -0.292    -0.273 -0.1177  0.8164 -0.5653
    70 H(1)   Bbb    -0.0013    -0.703    -0.251    -0.234 -0.0529  0.5633  0.8245
              Bcc     0.0029     1.522     0.543     0.508  0.9916  0.1270 -0.0231
 
              Baa    -0.0061    -0.823    -0.294    -0.275  0.1529  0.0169  0.9881
    71 C(13)  Bbb    -0.0012    -0.166    -0.059    -0.056  0.9882 -0.0132 -0.1527
              Bcc     0.0074     0.990     0.353     0.330  0.0105  0.9998 -0.0188
 
              Baa    -0.0134    -1.798    -0.642    -0.600 -0.6865  0.7196  0.1047
    72 C(13)  Bbb    -0.0103    -1.375    -0.491    -0.459  0.6371  0.5257  0.5637
              Bcc     0.0237     3.174     1.132     1.059 -0.3506 -0.4536  0.8193
 
              Baa    -0.0131    -1.753    -0.626    -0.585 -0.6400  0.7663 -0.0559
    73 C(13)  Bbb    -0.0037    -0.502    -0.179    -0.167  0.6565  0.5832  0.4784
              Bcc     0.0168     2.255     0.805     0.752 -0.3992 -0.2694  0.8764
 
              Baa    -0.0075    -1.003    -0.358    -0.335 -0.2185 -0.0926  0.9714
    74 C(13)  Bbb     0.0018     0.246     0.088     0.082  0.7149 -0.6928  0.0948
              Bcc     0.0056     0.756     0.270     0.252  0.6642  0.7152  0.2176
 
              Baa    -0.0023    -1.238    -0.442    -0.413 -0.0108  0.1574  0.9875
    75 H(1)   Bbb    -0.0009    -0.469    -0.167    -0.157  0.9859 -0.1632  0.0368
              Bcc     0.0032     1.707     0.609     0.569  0.1670  0.9740 -0.1534
 
              Baa    -0.0073    -0.981    -0.350    -0.327 -0.2046 -0.0877  0.9749
    76 C(13)  Bbb     0.0009     0.115     0.041     0.038 -0.6317  0.7727 -0.0631
              Bcc     0.0065     0.867     0.309     0.289  0.7477  0.6287  0.2135
 
              Baa    -0.0050    -2.680    -0.956    -0.894  0.3610 -0.2592  0.8958
    77 H(1)   Bbb    -0.0044    -2.326    -0.830    -0.776 -0.5517  0.7151  0.4292
              Bcc     0.0094     5.006     1.786     1.670  0.7519  0.6492 -0.1152
 
              Baa    -0.0132    -1.771    -0.632    -0.591 -0.6334  0.7719 -0.0553
    78 C(13)  Bbb    -0.0091    -1.226    -0.437    -0.409  0.6939  0.5981  0.4010
              Bcc     0.0223     2.996     1.069     0.999 -0.3426 -0.2156  0.9144
 
              Baa    -0.0012    -0.659    -0.235    -0.220 -0.1749  0.0097  0.9845
    79 H(1)   Bbb    -0.0005    -0.290    -0.103    -0.097  0.7917 -0.5932  0.1465
              Bcc     0.0018     0.948     0.338     0.316  0.5854  0.8050  0.0960
 
              Baa    -0.0019    -1.034    -0.369    -0.345  0.1075 -0.2713  0.9565
    80 H(1)   Bbb    -0.0015    -0.784    -0.280    -0.261 -0.5119  0.8096  0.2872
              Bcc     0.0034     1.817     0.648     0.606  0.8523  0.5205  0.0518
 
              Baa    -0.0008    -0.110    -0.039    -0.037 -0.0062 -0.2170  0.9761
    81 C(13)  Bbb    -0.0006    -0.085    -0.030    -0.028  0.8059 -0.5790 -0.1236
              Bcc     0.0015     0.195     0.070     0.065  0.5920  0.7859  0.1785
 
              Baa    -0.0007    -0.381    -0.136    -0.127 -0.2205  0.1356  0.9659
    82 H(1)   Bbb    -0.0006    -0.306    -0.109    -0.102  0.7741 -0.5782  0.2579
              Bcc     0.0013     0.688     0.245     0.229  0.5935  0.8045  0.0226
 
              Baa    -0.0008    -0.400    -0.143    -0.134  0.2977 -0.5012  0.8125
    83 H(1)   Bbb    -0.0006    -0.316    -0.113    -0.105  0.7812 -0.3612 -0.5091
              Bcc     0.0013     0.716     0.256     0.239  0.5487  0.7863  0.2841
 
              Baa    -0.0006    -0.327    -0.117    -0.109 -0.6384  0.7418 -0.2055
    84 H(1)   Bbb    -0.0006    -0.301    -0.107    -0.100 -0.2857  0.0195  0.9581
              Bcc     0.0012     0.628     0.224     0.210  0.7147  0.6704  0.1995
 
              Baa    -0.0158     1.140     0.407     0.380  0.8154 -0.5602  0.1459
    85 O(17)  Bbb    -0.0136     0.987     0.352     0.329  0.4911  0.8029  0.3378
              Bcc     0.0294    -2.127    -0.759    -0.709 -0.3063 -0.2038  0.9299
 
              Baa    -0.0129    -6.888    -2.458    -2.298 -0.1919  0.8519 -0.4872
    86 H(1)   Bbb    -0.0005    -0.278    -0.099    -0.093  0.9733  0.2289  0.0169
              Bcc     0.0134     7.166     2.557     2.390 -0.1259  0.4710  0.8731
 
              Baa    -0.0194    -2.604    -0.929    -0.868  0.4687  0.4170  0.7788
    87 C(13)  Bbb     0.0016     0.221     0.079     0.074  0.8801 -0.1443 -0.4524
              Bcc     0.0178     2.383     0.850     0.795 -0.0762  0.8974 -0.4346
 
              Baa    -0.0183    -2.452    -0.875    -0.818  0.8932  0.1601 -0.4203
    88 C(13)  Bbb    -0.0094    -1.262    -0.450    -0.421 -0.1552  0.9868  0.0460
              Bcc     0.0277     3.714     1.325     1.239  0.4221  0.0241  0.9062
 
              Baa    -0.0150    -2.011    -0.718    -0.671  0.9021 -0.3212 -0.2882
    89 C(13)  Bbb    -0.0087    -1.166    -0.416    -0.389  0.1848  0.8911 -0.4145
              Bcc     0.0237     3.177     1.134     1.060  0.3899  0.3207  0.8632
 
              Baa    -0.0132    -1.775    -0.633    -0.592  0.3776  0.3533  0.8559
    90 C(13)  Bbb     0.0032     0.435     0.155     0.145  0.8808  0.1481 -0.4497
              Bcc     0.0100     1.339     0.478     0.447 -0.2856  0.9237 -0.2553
 
              Baa    -0.0082    -4.353    -1.553    -1.452  0.0562  0.6636  0.7460
    91 H(1)   Bbb    -0.0050    -2.682    -0.957    -0.895  0.7922  0.4251 -0.4378
              Bcc     0.0132     7.035     2.510     2.347 -0.6077  0.6156 -0.5019
 
              Baa    -0.0116    -1.558    -0.556    -0.520  0.4105  0.3201  0.8538
    92 C(13)  Bbb     0.0037     0.500     0.179     0.167  0.9019 -0.0046 -0.4319
              Bcc     0.0079     1.057     0.377     0.353 -0.1343  0.9474 -0.2906
 
              Baa    -0.0031    -1.677    -0.599    -0.560  0.0341  0.7577  0.6517
    93 H(1)   Bbb    -0.0008    -0.403    -0.144    -0.134  0.9487 -0.2296  0.2174
              Bcc     0.0039     2.081     0.742     0.694 -0.3144 -0.6108  0.7267
 
              Baa    -0.0175    -2.355    -0.840    -0.785  0.8761  0.1207 -0.4668
    94 C(13)  Bbb    -0.0118    -1.581    -0.564    -0.527 -0.2228  0.9599 -0.1699
              Bcc     0.0293     3.936     1.404     1.313  0.4276  0.2528  0.8679
 
              Baa    -0.0021    -1.097    -0.392    -0.366  0.1979  0.4827  0.8531
    95 H(1)   Bbb    -0.0017    -0.913    -0.326    -0.304  0.8524  0.3449 -0.3929
              Bcc     0.0038     2.010     0.717     0.670 -0.4839  0.8050 -0.3432
 
              Baa    -0.0014    -0.764    -0.273    -0.255  0.5060  0.4709  0.7227
    96 H(1)   Bbb    -0.0006    -0.298    -0.107    -0.100  0.8573 -0.1826 -0.4813
              Bcc     0.0020     1.063     0.379     0.354 -0.0947  0.8631 -0.4961
 
              Baa    -0.0029    -1.525    -0.544    -0.509  0.8647  0.2361 -0.4433
    97 H(1)   Bbb    -0.0008    -0.439    -0.157    -0.147  0.3305  0.3970  0.8562
              Bcc     0.0037     1.965     0.701     0.655 -0.3782  0.8869 -0.2653
 

 ---------------------------------------------------------------------------------

 1\1\GINC-M9-43-4\SP\UM06L\Gen\C41H46Cl1N4Ni2O3(4)\MALLA1\24-Aug-2022\0
 \\#m06l/gen pseudo=read integral=ultrafine temperature=308 scrf=(read)
 \\Title Card Required\\0,4\C,0,2.464734,-1.122015,3.265032\C,0,1.52741
 2,-0.528225,4.120724\C,0,0.252601,-0.138728,3.622056\C,0,-0.008275,-0.
 353415,2.211418\C,0,2.138462,-1.287929,1.906103\H,0,-0.634616,0.618372
 ,5.475582\H,0,3.440393,-1.468228,3.634502\H,0,1.756269,-0.384906,5.187
 974\C,0,-0.805019,0.416101,4.407071\C,0,-2.241436,0.365833,2.460446\C,
 0,-2.05584,0.655061,3.827095\H,0,-2.898519,1.036817,4.421707\N,0,-1.21
 6255,-0.079887,1.663385\N,0,0.936531,-0.883094,1.396961\C,0,2.965104,-
 1.962461,0.912356\C,0,-3.502137,0.398069,1.746079\N,0,2.671908,-1.9369
 37,-0.360873\N,0,-3.599788,-0.020209,0.499696\Ni,0,-1.642204,-0.140562
 ,-0.306126\C,0,0.167607,0.549618,-0.804218\C,0,0.606822,1.815141,-0.53
 6799\C,0,-2.022537,-0.425112,-2.4157\H,0,-3.122358,-0.401036,-2.442324
 \C,0,-1.255656,0.799828,-2.464969\H,0,-0.302219,0.726306,-3.010254\C,0
 ,-1.346,-1.663447,-2.392532\H,0,-1.947401,-2.57826,-2.263181\C,0,0.083
 57,-1.792957,-2.434737\H,0,0.646189,-1.037252,-3.010825\H,0,-0.127648,
 2.623371,-0.739668\C,0,-5.660417,0.788843,1.311644\H,0,-5.835052,1.838
 227,0.993199\H,0,-6.5895,0.387026,1.757393\C,0,4.437042,-3.457191,0.12
 264\H,0,4.206589,-4.526709,0.301526\H,0,5.533324,-3.338551,0.019618\C,
 0,3.612676,-2.843449,-1.053306\H,0,3.006377,-3.635906,-1.545627\C,0,-5
 .045668,-0.083814,0.184117\H,0,-5.237675,0.379843,-0.80856\O,0,4.01747
 8,-2.71277,1.30491\O,0,-4.636688,0.804722,2.352044\Ni,0,0.580696,-1.30
 7073,-0.501392\Cl,0,-0.038606,-3.559295,0.122247\C,0,4.477384,-2.17219
 9,-2.175461\C,0,5.415622,-1.089431,-1.60406\H,0,4.842206,-0.280769,-1.
 108593\H,0,6.142018,-1.498211,-0.870592\H,0,6.006273,-0.625033,-2.4212
 6\C,0,5.311522,-3.282247,-2.855449\H,0,4.659152,-4.0742,-3.281396\H,0,
 5.913773,-2.857774,-3.685725\H,0,6.020208,-3.767768,-2.151393\C,0,3.54
 6095,-1.532371,-3.22475\H,0,2.945726,-0.713912,-2.780027\H,0,4.14104,-
 1.10863,-4.060995\H,0,2.845194,-2.279986,-3.65127\C,0,-5.597709,-1.554
 853,0.117328\C,0,-5.430222,-2.277388,1.471388\H,0,-4.361607,-2.348589,
 1.761357\H,0,-5.981329,-1.773048,2.292422\H,0,-5.823424,-3.312906,1.40
 0693\C,0,-4.831557,-2.336428,-0.969013\H,0,-4.944833,-1.860957,-1.9669
 8\H,0,-3.751405,-2.398496,-0.729032\H,0,-5.223552,-3.371834,-1.047628\
 C,0,-7.092206,-1.492674,-0.270464\H,0,-7.237633,-0.970742,-1.240666\H,
 0,-7.502951,-2.518289,-0.376413\H,0,-7.708435,-0.97157,0.492284\C,0,1.
 879593,2.330821,-0.033326\C,0,1.98797,3.711892,0.279376\C,0,3.038819,1
 .529251,0.160764\C,0,3.172885,4.274361,0.777842\H,0,1.11113,4.363995,0
 .131243\C,0,4.224423,2.07543,0.652432\H,0,2.990486,0.462566,-0.100586\
 C,0,4.307359,3.453772,0.973095\H,0,3.20325,5.348502,1.009595\H,0,5.120
 227,1.452047,0.798828\C,0,5.653255,5.266286,1.777371\H,0,5.495595,5.91
 9628,0.890273\H,0,4.949228,5.574985,2.582128\H,0,6.691108,5.39264,2.13
 833\O,0,5.508229,3.888425,1.449483\H,0,0.476044,-2.818127,-2.523104\C,
 0,-1.85555,2.146628,-2.555453\C,0,-3.138403,2.461969,-2.038851\C,0,-1.
 127292,3.180984,-3.199907\C,0,-3.678721,3.74867,-2.182526\H,0,-3.70838
 7,1.687318,-1.505481\C,0,-1.666581,4.469101,-3.342435\H,0,-0.125521,2.
 959271,-3.602938\C,0,-2.946864,4.758839,-2.835905\H,0,-4.679364,3.9685
 ,-1.777315\H,0,-1.08402,5.251888,-3.853708\H,0,-3.371945,5.769054,-2.9
 45599\\Version=ES64L-G16RevB.01\State=4-A\HF=-2834.1781419\S2=3.862928
 \S2-1=0.\S2A=3.754783\RMSD=2.356e-09\Dipole=-0.7670475,3.5281751,0.044
 5726\Quadrupole=25.5038489,-18.0027777,-7.5010711,-5.210827,-0.3174736
 ,5.9104749\PG=C01 [X(C41H46Cl1N4Ni2O3)]\\@


 A MAN IS EXACTLY AS GREAT AS THE TIDE SURGING
 BENEATH HIM.      - BISMARCK
 Job cpu time:       1 days  6 hours 52 minutes 12.7 seconds.
 Elapsed time:       0 days  2 hours 34 minutes 33.5 seconds.
 File lengths (MBytes):  RWF=   3715 Int=      0 D2E=      0 Chk=    238 Scr=      1
 Normal termination of Gaussian 16 at Wed Aug 24 17:50:41 2022.
